
     Program PWSCF v.7.2 starts on 19Sep2024 at 11: 8:59 

     This program is part of the open-source Quantum ESPRESSO suite
     for quantum simulation of materials; please cite
         "P. Giannozzi et al., J. Phys.:Condens. Matter 21 395502 (2009);
         "P. Giannozzi et al., J. Phys.:Condens. Matter 29 465901 (2017);
         "P. Giannozzi et al., J. Chem. Phys. 152 154105 (2020);
          URL http://www.quantum-espresso.org", 
     in publications or presentations arising from this work. More details at
     http://www.quantum-espresso.org/quote

     Parallel version (MPI & OpenMP), running on     720 processor cores
     Number of MPI processes:               360
     Threads/MPI process:                     2

     MPI processes distributed on    10 nodes
     186283 MiB available memory on the printing compute node when the environment starts
 
     Waiting for input...
     Reading input from standard input

     Current dimensions of program PWSCF are:
     Max number of different atomic species (ntypx) = 10
     Max number of k-points (npk) =  40000
     Max angular momentum in pseudopotentials (lmaxx) =  4
 
     K-points division:     npool     =       2
     R & G space division:  proc/nbgrp/npool/nimage =     180
     Subspace diagonalization in iterative solution of the eigenvalue problem:
     a serial algorithm will be used

 
     Parallelization info
     --------------------
     sticks:   dense  smooth     PW     G-vecs:    dense   smooth      PW
     Min         242     242     60                38018    38018    4748
     Max         243     243     61                38026    38026    4757
     Sum       43577   43577  10893              6843987  6843987  855385
 
     Using Slab Decomposition
 


     bravais-lattice index     =            1
     lattice parameter (alat)  =      37.0000  a.u.
     unit-cell volume          =   50653.0000 (a.u.)^3
     number of atoms/cell      =            2
     number of atomic types    =            1
     number of electrons       =        12.00 (up:   7.00, down:   5.00)
     number of Kohn-Sham states=            7
     kinetic-energy cutoff     =     100.0000  Ry
     charge density cutoff     =     400.0000  Ry
     scf convergence threshold =      1.0E-08
     mixing beta               =       0.7000
     number of iterations used =            8  plain     mixing
     energy convergence thresh.=      1.0E-04
     force convergence thresh. =      1.0E-03
     Exchange-correlation=  SLA  PW   PBX  PBC
                           (   1   4   3   4   0   0   0)
     nstep                     =           50


     celldm(1)=  37.000000  celldm(2)=   0.000000  celldm(3)=   0.000000
     celldm(4)=   0.000000  celldm(5)=   0.000000  celldm(6)=   0.000000

     crystal axes: (cart. coord. in units of alat)
               a(1) = (   1.000000   0.000000   0.000000 )  
               a(2) = (   0.000000   1.000000   0.000000 )  
               a(3) = (   0.000000   0.000000   1.000000 )  

     reciprocal axes: (cart. coord. in units 2 pi/alat)
               b(1) = (  1.000000  0.000000  0.000000 )  
               b(2) = (  0.000000  1.000000  0.000000 )  
               b(3) = (  0.000000  0.000000  1.000000 )  


     PseudoPot. # 1 for O  read from file:
     ../pseudo/O.pbe-tm-new-gipaw-dc.UPF
     MD5 check sum: cd70c9dcf1f7d755502eb127a1501eea
     Pseudo is Norm-conserving, Zval =  6.0
     Generated by new atomic code, or converted to UPF format
     Using radial grid of 1469 points,  1 beta functions with: 
                l(1) =   0

     atomic species   valence    mass     pseudopotential
        O              6.00    16.00000     O ( 1.00)

     Starting magnetic structure 
     atomic species   magnetization
        O            0.000

      8 Sym. Ops. (no inversion) found


                                    s                        frac. trans.

      isym =  1     identity                                     

 cryst.   s( 1) = (     1          0          0      )
                  (     0          1          0      )
                  (     0          0          1      )

 cart.    s( 1) = (  1.0000000  0.0000000  0.0000000 )
                  (  0.0000000  1.0000000  0.0000000 )
                  (  0.0000000  0.0000000  1.0000000 )


      isym =  2     180 deg rotation - cart. axis [0,0,1]        

 cryst.   s( 2) = (    -1          0          0      )
                  (     0         -1          0      )
                  (     0          0          1      )

 cart.    s( 2) = ( -1.0000000  0.0000000  0.0000000 )
                  (  0.0000000 -1.0000000  0.0000000 )
                  (  0.0000000  0.0000000  1.0000000 )


      isym =  3      90 deg rotation - cart. axis [0,0,-1]       

 cryst.   s( 3) = (     0         -1          0      )
                  (     1          0          0      )
                  (     0          0          1      )

 cart.    s( 3) = (  0.0000000  1.0000000  0.0000000 )
                  ( -1.0000000  0.0000000  0.0000000 )
                  (  0.0000000  0.0000000  1.0000000 )


      isym =  4      90 deg rotation - cart. axis [0,0,1]        

 cryst.   s( 4) = (     0          1          0      )
                  (    -1          0          0      )
                  (     0          0          1      )

 cart.    s( 4) = (  0.0000000 -1.0000000  0.0000000 )
                  (  1.0000000  0.0000000  0.0000000 )
                  (  0.0000000  0.0000000  1.0000000 )


      isym =  5     inv. 180 deg rotation - cart. axis [0,1,0]   

 cryst.   s( 5) = (     1          0          0      )
                  (     0         -1          0      )
                  (     0          0          1      )

 cart.    s( 5) = (  1.0000000  0.0000000  0.0000000 )
                  (  0.0000000 -1.0000000  0.0000000 )
                  (  0.0000000  0.0000000  1.0000000 )


      isym =  6     inv. 180 deg rotation - cart. axis [1,0,0]   

 cryst.   s( 6) = (    -1          0          0      )
                  (     0          1          0      )
                  (     0          0          1      )

 cart.    s( 6) = ( -1.0000000  0.0000000  0.0000000 )
                  (  0.0000000  1.0000000  0.0000000 )
                  (  0.0000000  0.0000000  1.0000000 )


      isym =  7     inv. 180 deg rotation - cart. axis [1,1,0]   

 cryst.   s( 7) = (     0         -1          0      )
                  (    -1          0          0      )
                  (     0          0          1      )

 cart.    s( 7) = (  0.0000000 -1.0000000  0.0000000 )
                  ( -1.0000000  0.0000000  0.0000000 )
                  (  0.0000000  0.0000000  1.0000000 )


      isym =  8     inv. 180 deg rotation - cart. axis [1,-1,0]  

 cryst.   s( 8) = (     0          1          0      )
                  (     1          0          0      )
                  (     0          0          1      )

 cart.    s( 8) = (  0.0000000  1.0000000  0.0000000 )
                  (  1.0000000  0.0000000  0.0000000 )
                  (  0.0000000  0.0000000  1.0000000 )


     point group C_4v (4mm) 
     there are  5 classes
     the character table:

       E     2C4   C2    2s_v  2s_d 
A_1    1.00  1.00  1.00  1.00  1.00
A_2    1.00  1.00  1.00 -1.00 -1.00
B_1    1.00 -1.00  1.00  1.00 -1.00
B_2    1.00 -1.00  1.00 -1.00  1.00
E      2.00  0.00 -2.00  0.00  0.00

     the symmetry operations in each class and the name of the first element:

     E        1
          identity                                               
     2C4      3    4
           90 deg rotation - cart. axis [0,0,-1]                 
     C2       2
          180 deg rotation - cart. axis [0,0,1]                  
     2s_v     5    6
          inv. 180 deg rotation - cart. axis [0,1,0]             
     2s_d     7    8
          inv. 180 deg rotation - cart. axis [1,1,0]             

   Cartesian axes

     site n.     atom                  positions (alat units)
         1           O   tau(   1) = (   0.0000000   0.0000000   0.0000000  )
         2           O   tau(   2) = (   0.0000000   0.0000000   0.0616970  )

   Crystallographic axes

     site n.     atom                  positions (cryst. coord.)
         1           O   tau(   1) = (  0.0000000  0.0000000  0.0000000  )
         2           O   tau(   2) = (  0.0000000  0.0000000  0.0616970  )

     number of k points=     1
                       cart. coord. in units 2pi/alat
        k(    1) = (   0.0000000   0.0000000   0.0000000), wk =   1.0000000

                       cryst. coord.
        k(    1) = (   0.0000000   0.0000000   0.0000000), wk =   1.0000000

     Dense  grid:  6843987 G-vectors     FFT dimensions: ( 240, 240, 240)

     Dynamical RAM for                 wfc:       0.51 MB

     Dynamical RAM for     wfc (w. buffer):       0.51 MB

     Dynamical RAM for           str. fact:       0.58 MB

     Dynamical RAM for           local pot:       0.00 MB

     Dynamical RAM for          nlocal pot:       0.15 MB

     Dynamical RAM for                qrad:       0.02 MB

     Dynamical RAM for          rho,v,vnew:       8.75 MB

     Dynamical RAM for               rhoin:       2.92 MB

     Dynamical RAM for            rho*nmix:      18.57 MB

     Dynamical RAM for           G-vectors:       2.47 MB

     Dynamical RAM for          h,s,v(r/c):       0.01 MB

     Dynamical RAM for          <psi|beta>:       0.00 MB

     Dynamical RAM for                 psi:       1.02 MB

     Dynamical RAM for                hpsi:       1.02 MB

     Dynamical RAM for      wfcinit/wfcrot:       2.33 MB

     Estimated static dynamical RAM per process >      21.82 MB

     Estimated max dynamical RAM per process >     104.43 MB

     Estimated total dynamical RAM >      11.75 GB
     Generating pointlists ...
     new r_m :   0.0255 (alat units)  0.9417 (a.u.) for type    1

     Initial potential from superposition of free atoms

     starting charge      12.0000, renormalised to      12.0000

     negative rho (up, down):  8.922E-05 8.922E-05
     Starting wfcs are   16 randomized atomic wfcs

     total cpu time spent up to now is       10.9 secs

     Self-consistent Calculation

     iteration #  1     ecut=   100.00 Ry     beta= 0.70
     Davidson diagonalization with overlap

---- Real-time Memory Report at c_bands before calling an iterative solver
           166 MiB given to the printing process from OS
             0 MiB allocation reported by mallinfo(arena+hblkhd)
        181215 MiB available memory on the node where the printing process lives
------------------
     ethr =  1.00E-04,  avg # of iterations =  4.0

     negative rho (up, down):  2.511E-05 2.633E-05

     total cpu time spent up to now is       11.7 secs

     total energy              =     -63.64180743 Ry
     estimated scf accuracy    <       0.10718322 Ry

     total magnetization       =     2.00 Bohr mag/cell
     absolute magnetization    =     2.00 Bohr mag/cell

     iteration #  2     ecut=   100.00 Ry     beta= 0.70
     Davidson diagonalization with overlap

---- Real-time Memory Report at c_bands before calling an iterative solver
           202 MiB given to the printing process from OS
             0 MiB allocation reported by mallinfo(arena+hblkhd)
        179987 MiB available memory on the node where the printing process lives
------------------
     ethr =  8.93E-04,  avg # of iterations =  2.0

     negative rho (up, down):  4.239E-06 4.811E-06

     total cpu time spent up to now is       12.2 secs

     total energy              =     -63.66278224 Ry
     estimated scf accuracy    <       0.00805743 Ry

     total magnetization       =     2.00 Bohr mag/cell
     absolute magnetization    =     2.02 Bohr mag/cell

     iteration #  3     ecut=   100.00 Ry     beta= 0.70
     Davidson diagonalization with overlap

---- Real-time Memory Report at c_bands before calling an iterative solver
           208 MiB given to the printing process from OS
             0 MiB allocation reported by mallinfo(arena+hblkhd)
        179821 MiB available memory on the node where the printing process lives
------------------
     ethr =  6.71E-05,  avg # of iterations =  2.0

     negative rho (up, down):  1.415E-07 2.698E-07

     total cpu time spent up to now is       12.7 secs

     total energy              =     -63.66444315 Ry
     estimated scf accuracy    <       0.00073588 Ry

     total magnetization       =     2.00 Bohr mag/cell
     absolute magnetization    =     2.04 Bohr mag/cell

     iteration #  4     ecut=   100.00 Ry     beta= 0.70
     Davidson diagonalization with overlap

---- Real-time Memory Report at c_bands before calling an iterative solver
           211 MiB given to the printing process from OS
             0 MiB allocation reported by mallinfo(arena+hblkhd)
        179730 MiB available memory on the node where the printing process lives
------------------
     ethr =  6.13E-06,  avg # of iterations =  2.0

     negative rho (up, down):  1.586E-07 2.663E-07

     total cpu time spent up to now is       13.2 secs

     total energy              =     -63.66463886 Ry
     estimated scf accuracy    <       0.00003706 Ry

     total magnetization       =     2.00 Bohr mag/cell
     absolute magnetization    =     2.05 Bohr mag/cell

     iteration #  5     ecut=   100.00 Ry     beta= 0.70
     Davidson diagonalization with overlap

---- Real-time Memory Report at c_bands before calling an iterative solver
           214 MiB given to the printing process from OS
             0 MiB allocation reported by mallinfo(arena+hblkhd)
        179639 MiB available memory on the node where the printing process lives
------------------
     ethr =  3.09E-07,  avg # of iterations =  3.5

     total cpu time spent up to now is       13.8 secs

     total energy              =     -63.66465959 Ry
     estimated scf accuracy    <       0.00000232 Ry

     total magnetization       =     2.00 Bohr mag/cell
     absolute magnetization    =     2.05 Bohr mag/cell

     iteration #  6     ecut=   100.00 Ry     beta= 0.70
     Davidson diagonalization with overlap

---- Real-time Memory Report at c_bands before calling an iterative solver
           217 MiB given to the printing process from OS
             0 MiB allocation reported by mallinfo(arena+hblkhd)
        179556 MiB available memory on the node where the printing process lives
------------------
     ethr =  1.93E-08,  avg # of iterations =  3.0

     total cpu time spent up to now is       14.4 secs

     total energy              =     -63.66466102 Ry
     estimated scf accuracy    <       0.00000130 Ry

     total magnetization       =     2.00 Bohr mag/cell
     absolute magnetization    =     2.05 Bohr mag/cell

     iteration #  7     ecut=   100.00 Ry     beta= 0.70
     Davidson diagonalization with overlap

---- Real-time Memory Report at c_bands before calling an iterative solver
           220 MiB given to the printing process from OS
             0 MiB allocation reported by mallinfo(arena+hblkhd)
        179465 MiB available memory on the node where the printing process lives
------------------
     ethr =  1.08E-08,  avg # of iterations =  2.0

     total cpu time spent up to now is       14.9 secs

     total energy              =     -63.66466130 Ry
     estimated scf accuracy    <       0.00000007 Ry

     total magnetization       =     2.00 Bohr mag/cell
     absolute magnetization    =     2.05 Bohr mag/cell

     iteration #  8     ecut=   100.00 Ry     beta= 0.70
     Davidson diagonalization with overlap

---- Real-time Memory Report at c_bands before calling an iterative solver
           224 MiB given to the printing process from OS
             0 MiB allocation reported by mallinfo(arena+hblkhd)
        179378 MiB available memory on the node where the printing process lives
------------------
     ethr =  5.95E-10,  avg # of iterations =  2.5
 
     Magnetic moment per site  (integrated on atomic sphere of radius R)
     atom   1 (R=0.025)  charge=  2.9138  magn=  0.5589
     atom   2 (R=0.025)  charge=  2.9160  magn=  0.5592

     total cpu time spent up to now is       15.3 secs

     End of self-consistent calculation

 ------ SPIN UP ------------


          k = 0.0000 0.0000 0.0000 (855385 PWs)   bands (ev):

   -32.9151 -20.4639 -13.5618 -13.5618 -13.5090  -6.8197  -6.8197

     occupation numbers 
     1.0000   1.0000   1.0000   1.0000   1.0000   1.0000   1.0000

 ------ SPIN DOWN ----------


          k = 0.0000 0.0000 0.0000 (855385 PWs)   bands (ev):

   -31.6681 -18.6106 -12.6351 -11.5686 -11.5686  -4.3576  -4.3576

     occupation numbers 
     1.0000   1.0000   1.0000   1.0000   1.0000   0.0000   0.0000

     highest occupied, lowest unoccupied level (ev):    -6.8197   -4.3576

!    total energy              =     -63.66466131 Ry
     estimated scf accuracy    <          7.9E-09 Ry

     The total energy is the sum of the following terms:
     one-electron contribution =    -144.51217205 Ry
     hartree contribution      =      74.01640682 Ry
     xc contribution           =     -13.68240607 Ry
     ewald contribution        =      20.51350999 Ry

     total magnetization       =     2.00 Bohr mag/cell
     absolute magnetization    =     2.05 Bohr mag/cell

     convergence has been achieved in   8 iterations

     Forces acting on atoms (cartesian axes, Ry/au):

     atom    1 type  1   force =     0.00000000    0.00000000   -0.11882679
     atom    2 type  1   force =     0.00000000    0.00000000    0.11882679
     The non-local contrib.  to forces
     atom    1 type  1   force =     0.00000000    0.00000000    3.10239612
     atom    2 type  1   force =     0.00000000    0.00000000   -3.10268808
     The ionic contribution  to forces
     atom    1 type  1   force =    -0.00000000   -0.00000000  -13.80284507
     atom    2 type  1   force =     0.00000000    0.00000000   13.80284507
     The local contribution  to forces
     atom    1 type  1   force =     0.00000000   -0.00000000   10.58184701
     atom    2 type  1   force =     0.00000000   -0.00000000  -10.58155109
     The core correction contribution to forces
     atom    1 type  1   force =     0.00000000    0.00000000    0.00000000
     atom    2 type  1   force =     0.00000000    0.00000000    0.00000000
     The Hubbard contrib.    to forces
     atom    1 type  1   force =     0.00000000    0.00000000    0.00000000
     atom    2 type  1   force =     0.00000000    0.00000000    0.00000000
     The SCF correction term to forces
     atom    1 type  1   force =     0.00000000    0.00000000   -0.00030263
     atom    2 type  1   force =    -0.00000000    0.00000000    0.00014311

     Total force =     0.168046     Total SCF correction =     0.000335

     BFGS Geometry Optimization
     Energy error            =      0.0E+00 Ry
     Gradient error          =      1.2E-01 Ry/Bohr

     number of scf cycles    =   1
     number of bfgs steps    =   0

     energy             new  =     -63.6646613115 Ry

     new trust radius        =       0.1188267889 bohr
     new conv_thr            =       0.0000000100 Ry


ATOMIC_POSITIONS (angstrom)
O             0.0000000000        0.0000000000       -0.0628804287
O             0.0000000000        0.0000000000        1.2708804287



     Writing config-only to output data dir ./scratch/o2.save/
     NEW-OLD atomic charge density approx. for the potential

     negative rho (up, down):  1.031E-04 1.031E-04
     Generating pointlists ...

     total cpu time spent up to now is       18.5 secs

     Self-consistent Calculation

     iteration #  1     ecut=   100.00 Ry     beta= 0.70
     Davidson diagonalization with overlap

---- Real-time Memory Report at c_bands before calling an iterative solver
           331 MiB given to the printing process from OS
             0 MiB allocation reported by mallinfo(arena+hblkhd)
        178965 MiB available memory on the node where the printing process lives
------------------
     ethr =  1.00E-06,  avg # of iterations =  7.0

     negative rho (up, down):  1.414E-03 1.406E-03

     total cpu time spent up to now is       19.3 secs

     total energy              =     -63.65182483 Ry
     estimated scf accuracy    <       0.01011931 Ry

     total magnetization       =     2.00 Bohr mag/cell
     absolute magnetization    =     2.05 Bohr mag/cell

     iteration #  2     ecut=   100.00 Ry     beta= 0.70
     Davidson diagonalization with overlap

---- Real-time Memory Report at c_bands before calling an iterative solver
           331 MiB given to the printing process from OS
             0 MiB allocation reported by mallinfo(arena+hblkhd)
        178938 MiB available memory on the node where the printing process lives
------------------
     ethr =  8.43E-05,  avg # of iterations =  2.0

     negative rho (up, down):  6.261E-04 6.225E-04

     total cpu time spent up to now is       19.8 secs

     total energy              =     -63.65433871 Ry
     estimated scf accuracy    <       0.00135930 Ry

     total magnetization       =     2.00 Bohr mag/cell
     absolute magnetization    =     2.05 Bohr mag/cell

     iteration #  3     ecut=   100.00 Ry     beta= 0.70
     Davidson diagonalization with overlap

---- Real-time Memory Report at c_bands before calling an iterative solver
           331 MiB given to the printing process from OS
             0 MiB allocation reported by mallinfo(arena+hblkhd)
        178928 MiB available memory on the node where the printing process lives
------------------
     ethr =  1.13E-05,  avg # of iterations =  2.0

     negative rho (up, down):  9.294E-06 9.389E-06

     total cpu time spent up to now is       20.3 secs

     total energy              =     -63.65465653 Ry
     estimated scf accuracy    <       0.00006760 Ry

     total magnetization       =     2.00 Bohr mag/cell
     absolute magnetization    =     2.05 Bohr mag/cell

     iteration #  4     ecut=   100.00 Ry     beta= 0.70
     Davidson diagonalization with overlap

---- Real-time Memory Report at c_bands before calling an iterative solver
           331 MiB given to the printing process from OS
             0 MiB allocation reported by mallinfo(arena+hblkhd)
        178930 MiB available memory on the node where the printing process lives
------------------
     ethr =  5.63E-07,  avg # of iterations =  3.5

     negative rho (up, down):  4.819E-06 4.833E-06

     total cpu time spent up to now is       20.8 secs

     total energy              =     -63.65466936 Ry
     estimated scf accuracy    <       0.00002599 Ry

     total magnetization       =     2.00 Bohr mag/cell
     absolute magnetization    =     2.05 Bohr mag/cell

     iteration #  5     ecut=   100.00 Ry     beta= 0.70
     Davidson diagonalization with overlap

---- Real-time Memory Report at c_bands before calling an iterative solver
           331 MiB given to the printing process from OS
             0 MiB allocation reported by mallinfo(arena+hblkhd)
        178929 MiB available memory on the node where the printing process lives
------------------
     ethr =  2.17E-07,  avg # of iterations =  2.5

     negative rho (up, down):  1.352E-05 1.337E-05

     total cpu time spent up to now is       21.3 secs

     total energy              =     -63.65467618 Ry
     estimated scf accuracy    <       0.00001617 Ry

     total magnetization       =     2.00 Bohr mag/cell
     absolute magnetization    =     2.05 Bohr mag/cell

     iteration #  6     ecut=   100.00 Ry     beta= 0.70
     Davidson diagonalization with overlap

---- Real-time Memory Report at c_bands before calling an iterative solver
           331 MiB given to the printing process from OS
             0 MiB allocation reported by mallinfo(arena+hblkhd)
        178932 MiB available memory on the node where the printing process lives
------------------
     ethr =  1.35E-07,  avg # of iterations =  1.5

     negative rho (up, down):  3.367E-06 3.402E-06

     total cpu time spent up to now is       21.8 secs

     total energy              =     -63.65467820 Ry
     estimated scf accuracy    <       0.00000024 Ry

     total magnetization       =     2.00 Bohr mag/cell
     absolute magnetization    =     2.05 Bohr mag/cell

     iteration #  7     ecut=   100.00 Ry     beta= 0.70
     Davidson diagonalization with overlap

---- Real-time Memory Report at c_bands before calling an iterative solver
           331 MiB given to the printing process from OS
             0 MiB allocation reported by mallinfo(arena+hblkhd)
        178931 MiB available memory on the node where the printing process lives
------------------
     ethr =  2.03E-09,  avg # of iterations =  4.0

     negative rho (up, down):  1.265E-06 1.323E-06

     total cpu time spent up to now is       22.4 secs

     total energy              =     -63.65467842 Ry
     estimated scf accuracy    <       0.00000023 Ry

     total magnetization       =     2.00 Bohr mag/cell
     absolute magnetization    =     2.05 Bohr mag/cell

     iteration #  8     ecut=   100.00 Ry     beta= 0.70
     Davidson diagonalization with overlap

---- Real-time Memory Report at c_bands before calling an iterative solver
           331 MiB given to the printing process from OS
             0 MiB allocation reported by mallinfo(arena+hblkhd)
        178932 MiB available memory on the node where the printing process lives
------------------
     ethr =  1.88E-09,  avg # of iterations =  1.5

     negative rho (up, down):  1.061E-08 2.010E-08

     total cpu time spent up to now is       22.9 secs

     total energy              =     -63.65467844 Ry
     estimated scf accuracy    <       0.00000001 Ry

     total magnetization       =     2.00 Bohr mag/cell
     absolute magnetization    =     2.05 Bohr mag/cell

     iteration #  9     ecut=   100.00 Ry     beta= 0.70
     Davidson diagonalization with overlap

---- Real-time Memory Report at c_bands before calling an iterative solver
           331 MiB given to the printing process from OS
             0 MiB allocation reported by mallinfo(arena+hblkhd)
        178874 MiB available memory on the node where the printing process lives
------------------
     ethr =  1.19E-10,  avg # of iterations =  4.0
 
     Magnetic moment per site  (integrated on atomic sphere of radius R)
     atom   1 (R=0.025)  charge=  2.8502  magn=  0.5611
     atom   2 (R=0.025)  charge=  2.8518  magn=  0.5614

     total cpu time spent up to now is       23.4 secs

     End of self-consistent calculation

 ------ SPIN UP ------------


          k = 0.0000 0.0000 0.0000 (855385 PWs)   bands (ev):

   -30.6302 -21.4655 -13.1679 -12.5969 -12.5969  -7.7111  -7.7111

     occupation numbers 
     1.0000   1.0000   1.0000   1.0000   1.0000   1.0000   1.0000

 ------ SPIN DOWN ----------


          k = 0.0000 0.0000 0.0000 (855385 PWs)   bands (ev):

   -29.2830 -19.6022 -12.3789 -10.5970 -10.5970  -5.2815  -5.2815

     occupation numbers 
     1.0000   1.0000   1.0000   1.0000   1.0000   0.0000   0.0000

     highest occupied, lowest unoccupied level (ev):    -7.7111   -5.2815

!    total energy              =     -63.65467844 Ry
     estimated scf accuracy    <          1.7E-09 Ry

     The total energy is the sum of the following terms:
     one-electron contribution =    -139.07840571 Ry
     hartree contribution      =      71.36545237 Ry
     xc contribution           =     -13.48472218 Ry
     ewald contribution        =      17.54299709 Ry

     total magnetization       =     2.00 Bohr mag/cell
     absolute magnetization    =     2.05 Bohr mag/cell

     convergence has been achieved in   9 iterations

     Forces acting on atoms (cartesian axes, Ry/au):

     atom    1 type  1   force =     0.00000000    0.00000000    0.16298972
     atom    2 type  1   force =     0.00000000    0.00000000   -0.16298972
     The non-local contrib.  to forces
     atom    1 type  1   force =     0.00000000    0.00000000    2.85537635
     atom    2 type  1   force =     0.00000000    0.00000000   -2.85567611
     The ionic contribution  to forces
     atom    1 type  1   force =    -0.00000000   -0.00000000  -11.31867172
     atom    2 type  1   force =     0.00000000    0.00000000   11.31867172
     The local contribution  to forces
     atom    1 type  1   force =     0.00000000   -0.00000000    8.62617189
     atom    2 type  1   force =     0.00000000   -0.00000000   -8.62609370
     The core correction contribution to forces
     atom    1 type  1   force =     0.00000000    0.00000000    0.00000000
     atom    2 type  1   force =     0.00000000    0.00000000    0.00000000
     The Hubbard contrib.    to forces
     atom    1 type  1   force =     0.00000000    0.00000000    0.00000000
     atom    2 type  1   force =     0.00000000    0.00000000    0.00000000
     The SCF correction term to forces
     atom    1 type  1   force =    -0.00000000    0.00000000    0.00006202
     atom    2 type  1   force =    -0.00000000   -0.00000000    0.00005719

     Total force =     0.230502     Total SCF correction =     0.000084
     Energy error            =      1.0E-02 Ry
     Gradient error          =      1.6E-01 Ry/Bohr

     number of scf cycles    =   2
     number of bfgs steps    =   1

     energy             old  =     -63.6646613115 Ry
     energy             new  =     -63.6546784400 Ry

     CASE: energy            _new > energy            _old

     new trust radius        =       0.0438959231 bohr
     new conv_thr            =       0.0000000100 Ry


ATOMIC_POSITIONS (angstrom)
O             0.0000000000        0.0000000000       -0.0232287222
O             0.0000000000        0.0000000000        1.2312287222



     Writing config-only to output data dir ./scratch/o2.save/
     NEW-OLD atomic charge density approx. for the potential

     negative rho (up, down):  7.150E-05 7.150E-05
     Generating pointlists ...

     total cpu time spent up to now is       25.2 secs

     Self-consistent Calculation

     iteration #  1     ecut=   100.00 Ry     beta= 0.70
     Davidson diagonalization with overlap

---- Real-time Memory Report at c_bands before calling an iterative solver
           340 MiB given to the printing process from OS
             0 MiB allocation reported by mallinfo(arena+hblkhd)
        178842 MiB available memory on the node where the printing process lives
------------------
     ethr =  1.00E-06,  avg # of iterations =  7.0

     negative rho (up, down):  8.651E-04 8.678E-04

     total cpu time spent up to now is       26.0 secs

     total energy              =     -63.66800069 Ry
     estimated scf accuracy    <       0.00361242 Ry

     total magnetization       =     2.00 Bohr mag/cell
     absolute magnetization    =     2.05 Bohr mag/cell

     iteration #  2     ecut=   100.00 Ry     beta= 0.70
     Davidson diagonalization with overlap

---- Real-time Memory Report at c_bands before calling an iterative solver
           340 MiB given to the printing process from OS
             0 MiB allocation reported by mallinfo(arena+hblkhd)
        178841 MiB available memory on the node where the printing process lives
------------------
     ethr =  3.01E-05,  avg # of iterations =  2.0

     negative rho (up, down):  3.644E-04 3.677E-04

     total cpu time spent up to now is       26.5 secs

     total energy              =     -63.66884190 Ry
     estimated scf accuracy    <       0.00041555 Ry

     total magnetization       =     2.00 Bohr mag/cell
     absolute magnetization    =     2.05 Bohr mag/cell

     iteration #  3     ecut=   100.00 Ry     beta= 0.70
     Davidson diagonalization with overlap

---- Real-time Memory Report at c_bands before calling an iterative solver
           340 MiB given to the printing process from OS
             0 MiB allocation reported by mallinfo(arena+hblkhd)
        178839 MiB available memory on the node where the printing process lives
------------------
     ethr =  3.46E-06,  avg # of iterations =  2.0

     negative rho (up, down):  1.239E-05 1.286E-05

     total cpu time spent up to now is       27.0 secs

     total energy              =     -63.66895292 Ry
     estimated scf accuracy    <       0.00002766 Ry

     total magnetization       =     2.00 Bohr mag/cell
     absolute magnetization    =     2.05 Bohr mag/cell

     iteration #  4     ecut=   100.00 Ry     beta= 0.70
     Davidson diagonalization with overlap

---- Real-time Memory Report at c_bands before calling an iterative solver
           340 MiB given to the printing process from OS
             0 MiB allocation reported by mallinfo(arena+hblkhd)
        178826 MiB available memory on the node where the printing process lives
------------------
     ethr =  2.31E-07,  avg # of iterations =  4.0

     negative rho (up, down):  5.465E-06 5.646E-06

     total cpu time spent up to now is       27.5 secs

     total energy              =     -63.66896024 Ry
     estimated scf accuracy    <       0.00000460 Ry

     total magnetization       =     2.00 Bohr mag/cell
     absolute magnetization    =     2.05 Bohr mag/cell

     iteration #  5     ecut=   100.00 Ry     beta= 0.70
     Davidson diagonalization with overlap

---- Real-time Memory Report at c_bands before calling an iterative solver
           340 MiB given to the printing process from OS
             0 MiB allocation reported by mallinfo(arena+hblkhd)
        178826 MiB available memory on the node where the printing process lives
------------------
     ethr =  3.83E-08,  avg # of iterations =  3.0

     negative rho (up, down):  9.537E-06 9.762E-06

     total cpu time spent up to now is       28.1 secs

     total energy              =     -63.66896129 Ry
     estimated scf accuracy    <       0.00000783 Ry

     total magnetization       =     2.00 Bohr mag/cell
     absolute magnetization    =     2.05 Bohr mag/cell

     iteration #  6     ecut=   100.00 Ry     beta= 0.70
     Davidson diagonalization with overlap

---- Real-time Memory Report at c_bands before calling an iterative solver
           340 MiB given to the printing process from OS
             0 MiB allocation reported by mallinfo(arena+hblkhd)
        178825 MiB available memory on the node where the printing process lives
------------------
     ethr =  3.83E-08,  avg # of iterations =  2.0

     negative rho (up, down):  1.229E-06 1.330E-06

     total cpu time spent up to now is       28.6 secs

     total energy              =     -63.66896242 Ry
     estimated scf accuracy    <       0.00000006 Ry

     total magnetization       =     2.00 Bohr mag/cell
     absolute magnetization    =     2.05 Bohr mag/cell

     iteration #  7     ecut=   100.00 Ry     beta= 0.70
     Davidson diagonalization with overlap

---- Real-time Memory Report at c_bands before calling an iterative solver
           340 MiB given to the printing process from OS
             0 MiB allocation reported by mallinfo(arena+hblkhd)
        178818 MiB available memory on the node where the printing process lives
------------------
     ethr =  5.17E-10,  avg # of iterations =  5.0

     negative rho (up, down):  4.993E-07 5.729E-07

     total cpu time spent up to now is       29.2 secs

     total energy              =     -63.66896248 Ry
     estimated scf accuracy    <       0.00000011 Ry

     total magnetization       =     2.00 Bohr mag/cell
     absolute magnetization    =     2.05 Bohr mag/cell

     iteration #  8     ecut=   100.00 Ry     beta= 0.70
     Davidson diagonalization with overlap

---- Real-time Memory Report at c_bands before calling an iterative solver
           340 MiB given to the printing process from OS
             0 MiB allocation reported by mallinfo(arena+hblkhd)
        178818 MiB available memory on the node where the printing process lives
------------------
     ethr =  5.17E-10,  avg # of iterations =  1.5

     total cpu time spent up to now is       29.7 secs

     total energy              =     -63.66896249 Ry
     estimated scf accuracy    <       0.00000001 Ry

     total magnetization       =     2.00 Bohr mag/cell
     absolute magnetization    =     2.05 Bohr mag/cell

     iteration #  9     ecut=   100.00 Ry     beta= 0.70
     Davidson diagonalization with overlap

---- Real-time Memory Report at c_bands before calling an iterative solver
           340 MiB given to the printing process from OS
             0 MiB allocation reported by mallinfo(arena+hblkhd)
        178817 MiB available memory on the node where the printing process lives
------------------
     ethr =  1.00E-10,  avg # of iterations =  3.0
 
     Magnetic moment per site  (integrated on atomic sphere of radius R)
     atom   1 (R=0.025)  charge=  2.8876  magn=  0.5606
     atom   2 (R=0.025)  charge=  2.8860  magn=  0.5604

     total cpu time spent up to now is       30.1 secs

     End of self-consistent calculation

 ------ SPIN UP ------------


          k = 0.0000 0.0000 0.0000 (855385 PWs)   bands (ev):

   -31.9973 -20.8462 -13.3807 -13.1675 -13.1675  -7.1830  -7.1830

     occupation numbers 
     1.0000   1.0000   1.0000   1.0000   1.0000   1.0000   1.0000

 ------ SPIN DOWN ----------


          k = 0.0000 0.0000 0.0000 (855385 PWs)   bands (ev):

   -30.7107 -18.9879 -12.5400 -11.1713 -11.1713  -4.7307  -4.7307

     occupation numbers 
     1.0000   1.0000   1.0000   1.0000   1.0000   0.0000   0.0000

     highest occupied, lowest unoccupied level (ev):    -7.1830   -4.7307

!    total energy              =     -63.66896249 Ry
     estimated scf accuracy    <          1.2E-10 Ry

     The total energy is the sum of the following terms:
     one-electron contribution =    -142.40214343 Ry
     hartree contribution      =      72.98923468 Ry
     xc contribution           =     -13.60273174 Ry
     ewald contribution        =      19.34667800 Ry

     total magnetization       =     2.00 Bohr mag/cell
     absolute magnetization    =     2.05 Bohr mag/cell

     convergence has been achieved in   9 iterations

     Forces acting on atoms (cartesian axes, Ry/au):

     atom    1 type  1   force =     0.00000000    0.00000000    0.01394063
     atom    2 type  1   force =     0.00000000    0.00000000   -0.01394063
     The non-local contrib.  to forces
     atom    1 type  1   force =     0.00000000    0.00000000    3.03610375
     atom    2 type  1   force =     0.00000000    0.00000000   -3.03577846
     The ionic contribution  to forces
     atom    1 type  1   force =    -0.00000000   -0.00000000  -12.79788916
     atom    2 type  1   force =     0.00000000    0.00000000   12.79788916
     The local contribution  to forces
     atom    1 type  1   force =     0.00000000    0.00000000    9.77581003
     atom    2 type  1   force =     0.00000000   -0.00000000   -9.77597225
     The core correction contribution to forces
     atom    1 type  1   force =     0.00000000    0.00000000    0.00000000
     atom    2 type  1   force =     0.00000000    0.00000000    0.00000000
     The Hubbard contrib.    to forces
     atom    1 type  1   force =     0.00000000    0.00000000    0.00000000
     atom    2 type  1   force =     0.00000000    0.00000000    0.00000000
     The SCF correction term to forces
     atom    1 type  1   force =    -0.00000000   -0.00000000   -0.00001631
     atom    2 type  1   force =     0.00000000   -0.00000000   -0.00001141

     Total force =     0.019715     Total SCF correction =     0.000020
     Energy error            =      4.3E-03 Ry
     Gradient error          =      1.4E-02 Ry/Bohr

     number of scf cycles    =   3
     number of bfgs steps    =   1

     energy             old  =     -63.6646613115 Ry
     energy             new  =     -63.6689624899 Ry

     CASE: energy            _new < energy            _old

     new trust radius        =       0.0046090884 bohr
     new conv_thr            =       0.0000000014 Ry


ATOMIC_POSITIONS (angstrom)
O             0.0000000000        0.0000000000       -0.0207896976
O             0.0000000000        0.0000000000        1.2287896976



     Writing config-only to output data dir ./scratch/o2.save/
     NEW-OLD atomic charge density approx. for the potential

     negative rho (up, down):  3.963E-06 3.963E-06
     Generating pointlists ...

     total cpu time spent up to now is       31.8 secs

     Self-consistent Calculation

     iteration #  1     ecut=   100.00 Ry     beta= 0.70
     Davidson diagonalization with overlap

---- Real-time Memory Report at c_bands before calling an iterative solver
           345 MiB given to the printing process from OS
             0 MiB allocation reported by mallinfo(arena+hblkhd)
        178821 MiB available memory on the node where the printing process lives
------------------
     ethr =  1.00E-06,  avg # of iterations =  3.0

     negative rho (up, down):  4.664E-05 4.735E-05

     total cpu time spent up to now is       32.4 secs

     total energy              =     -63.66903093 Ry
     estimated scf accuracy    <       0.00001635 Ry

     total magnetization       =     2.00 Bohr mag/cell
     absolute magnetization    =     2.05 Bohr mag/cell

     iteration #  2     ecut=   100.00 Ry     beta= 0.70
     Davidson diagonalization with overlap

---- Real-time Memory Report at c_bands before calling an iterative solver
           345 MiB given to the printing process from OS
             0 MiB allocation reported by mallinfo(arena+hblkhd)
        178820 MiB available memory on the node where the printing process lives
------------------
     ethr =  1.36E-07,  avg # of iterations =  2.0

     negative rho (up, down):  2.014E-05 2.060E-05

     total cpu time spent up to now is       32.9 secs

     total energy              =     -63.66903516 Ry
     estimated scf accuracy    <       0.00000202 Ry

     total magnetization       =     2.00 Bohr mag/cell
     absolute magnetization    =     2.05 Bohr mag/cell

     iteration #  3     ecut=   100.00 Ry     beta= 0.70
     Davidson diagonalization with overlap

---- Real-time Memory Report at c_bands before calling an iterative solver
           345 MiB given to the printing process from OS
             0 MiB allocation reported by mallinfo(arena+hblkhd)
        178816 MiB available memory on the node where the printing process lives
------------------
     ethr =  1.68E-08,  avg # of iterations =  2.0

     negative rho (up, down):  7.956E-07 8.853E-07

     total cpu time spent up to now is       33.4 secs

     total energy              =     -63.66903563 Ry
     estimated scf accuracy    <       0.00000010 Ry

     total magnetization       =     2.00 Bohr mag/cell
     absolute magnetization    =     2.05 Bohr mag/cell

     iteration #  4     ecut=   100.00 Ry     beta= 0.70
     Davidson diagonalization with overlap

---- Real-time Memory Report at c_bands before calling an iterative solver
           345 MiB given to the printing process from OS
             0 MiB allocation reported by mallinfo(arena+hblkhd)
        178819 MiB available memory on the node where the printing process lives
------------------
     ethr =  8.44E-10,  avg # of iterations =  3.0

     total cpu time spent up to now is       33.9 secs

     total energy              =     -63.66903564 Ry
     estimated scf accuracy    <       0.00000010 Ry

     total magnetization       =     2.00 Bohr mag/cell
     absolute magnetization    =     2.05 Bohr mag/cell

     iteration #  5     ecut=   100.00 Ry     beta= 0.70
     Davidson diagonalization with overlap

---- Real-time Memory Report at c_bands before calling an iterative solver
           345 MiB given to the printing process from OS
             0 MiB allocation reported by mallinfo(arena+hblkhd)
        178806 MiB available memory on the node where the printing process lives
------------------
     ethr =  7.94E-10,  avg # of iterations =  1.5

     negative rho (up, down):  2.955E-07 3.541E-07

     total cpu time spent up to now is       34.4 secs

     total energy              =     -63.66903566 Ry
     estimated scf accuracy    <          5.0E-09 Ry

     total magnetization       =     2.00 Bohr mag/cell
     absolute magnetization    =     2.05 Bohr mag/cell

     iteration #  6     ecut=   100.00 Ry     beta= 0.70
     Davidson diagonalization with overlap

---- Real-time Memory Report at c_bands before calling an iterative solver
           345 MiB given to the printing process from OS
             0 MiB allocation reported by mallinfo(arena+hblkhd)
        178810 MiB available memory on the node where the printing process lives
------------------
     ethr =  4.15E-11,  avg # of iterations =  2.5
 
     Magnetic moment per site  (integrated on atomic sphere of radius R)
     atom   1 (R=0.025)  charge=  2.8900  magn=  0.5605
     atom   2 (R=0.025)  charge=  2.8884  magn=  0.5603

     total cpu time spent up to now is       34.9 secs

     End of self-consistent calculation

 ------ SPIN UP ------------


          k = 0.0000 0.0000 0.0000 (855385 PWs)   bands (ev):

   -32.0895 -20.8067 -13.3940 -13.2067 -13.2067  -7.1469  -7.1469

     occupation numbers 
     1.0000   1.0000   1.0000   1.0000   1.0000   1.0000   1.0000

 ------ SPIN DOWN ----------


          k = 0.0000 0.0000 0.0000 (855385 PWs)   bands (ev):

   -30.8069 -18.9487 -12.5498 -11.2107 -11.2107  -4.6934  -4.6934

     occupation numbers 
     1.0000   1.0000   1.0000   1.0000   1.0000   0.0000   0.0000

     highest occupied, lowest unoccupied level (ev):    -7.1469   -4.6934

!    total energy              =     -63.66903567 Ry
     estimated scf accuracy    <          3.1E-10 Ry

     The total energy is the sum of the following terms:
     one-electron contribution =    -142.61777905 Ry
     hartree contribution      =      73.09434206 Ry
     xc contribution           =     -13.61071120 Ry
     ewald contribution        =      19.46511252 Ry

     total magnetization       =     2.00 Bohr mag/cell
     absolute magnetization    =     2.05 Bohr mag/cell

     convergence has been achieved in   6 iterations

     Forces acting on atoms (cartesian axes, Ry/au):

     atom    1 type  1   force =     0.00000000    0.00000000    0.00185425
     atom    2 type  1   force =     0.00000000    0.00000000   -0.00185425
     The non-local contrib.  to forces
     atom    1 type  1   force =     0.00000000    0.00000000    3.04466560
     atom    2 type  1   force =     0.00000000    0.00000000   -3.04446335
     The ionic contribution  to forces
     atom    1 type  1   force =    -0.00000000   -0.00000000  -12.89817244
     atom    2 type  1   force =     0.00000000    0.00000000   12.89817244
     The local contribution  to forces
     atom    1 type  1   force =     0.00000000    0.00000000    9.85541867
     atom    2 type  1   force =     0.00000000   -0.00000000   -9.85556487
     The core correction contribution to forces
     atom    1 type  1   force =     0.00000000    0.00000000    0.00000000
     atom    2 type  1   force =     0.00000000    0.00000000    0.00000000
     The Hubbard contrib.    to forces
     atom    1 type  1   force =     0.00000000    0.00000000    0.00000000
     atom    2 type  1   force =     0.00000000    0.00000000    0.00000000
     The SCF correction term to forces
     atom    1 type  1   force =     0.00000000   -0.00000000   -0.00001560
     atom    2 type  1   force =     0.00000000   -0.00000000    0.00004352

     Total force =     0.002622     Total SCF correction =     0.000046
     Energy error            =      7.3E-05 Ry
     Gradient error          =      1.9E-03 Ry/Bohr

     number of scf cycles    =   4
     number of bfgs steps    =   2

     energy             old  =     -63.6689624899 Ry
     energy             new  =     -63.6690356653 Ry

     CASE: energy            _new < energy            _old

     new trust radius        =       0.0007071100 bohr
     new conv_thr            =            1.0E-10 Ry


ATOMIC_POSITIONS (angstrom)
O             0.0000000000        0.0000000000       -0.0204155111
O             0.0000000000        0.0000000000        1.2284155111



     Writing config-only to output data dir ./scratch/o2.save/
     NEW-OLD atomic charge density approx. for the potential

     negative rho (up, down):  4.838E-07 4.838E-07
     Generating pointlists ...

     total cpu time spent up to now is       36.6 secs

     Self-consistent Calculation

     iteration #  1     ecut=   100.00 Ry     beta= 0.70
     Davidson diagonalization with overlap

---- Real-time Memory Report at c_bands before calling an iterative solver
           346 MiB given to the printing process from OS
             0 MiB allocation reported by mallinfo(arena+hblkhd)
        178812 MiB available memory on the node where the printing process lives
------------------
     ethr =  1.00E-06,  avg # of iterations =  2.0

     Threshold (ethr) on eigenvalues was too large:
     Diagonalizing with lowered threshold

     Davidson diagonalization with overlap

---- Real-time Memory Report at c_bands before calling an iterative solver
           346 MiB given to the printing process from OS
             0 MiB allocation reported by mallinfo(arena+hblkhd)
        178798 MiB available memory on the node where the printing process lives
------------------
     ethr =  3.19E-09,  avg # of iterations =  2.0

     negative rho (up, down):  6.556E-06 6.787E-06

     total cpu time spent up to now is       37.4 secs

     total energy              =     -63.66903685 Ry
     estimated scf accuracy    <       0.00000039 Ry

     total magnetization       =     2.00 Bohr mag/cell
     absolute magnetization    =     2.05 Bohr mag/cell

     iteration #  2     ecut=   100.00 Ry     beta= 0.70
     Davidson diagonalization with overlap

---- Real-time Memory Report at c_bands before calling an iterative solver
           346 MiB given to the printing process from OS
             0 MiB allocation reported by mallinfo(arena+hblkhd)
        178799 MiB available memory on the node where the printing process lives
------------------
     ethr =  3.28E-09,  avg # of iterations =  2.0

     negative rho (up, down):  2.822E-06 2.973E-06

     total cpu time spent up to now is       37.9 secs

     total energy              =     -63.66903695 Ry
     estimated scf accuracy    <       0.00000006 Ry

     total magnetization       =     2.00 Bohr mag/cell
     absolute magnetization    =     2.05 Bohr mag/cell

     iteration #  3     ecut=   100.00 Ry     beta= 0.70
     Davidson diagonalization with overlap

---- Real-time Memory Report at c_bands before calling an iterative solver
           346 MiB given to the printing process from OS
             0 MiB allocation reported by mallinfo(arena+hblkhd)
        178792 MiB available memory on the node where the printing process lives
------------------
     ethr =  4.64E-10,  avg # of iterations =  2.0

     negative rho (up, down):  1.244E-06 1.349E-06

     total cpu time spent up to now is       38.4 secs

     total energy              =     -63.66903696 Ry
     estimated scf accuracy    <       0.00000001 Ry

     total magnetization       =     2.00 Bohr mag/cell
     absolute magnetization    =     2.05 Bohr mag/cell

     iteration #  4     ecut=   100.00 Ry     beta= 0.70
     Davidson diagonalization with overlap

---- Real-time Memory Report at c_bands before calling an iterative solver
           346 MiB given to the printing process from OS
             0 MiB allocation reported by mallinfo(arena+hblkhd)
        178788 MiB available memory on the node where the printing process lives
------------------
     ethr =  1.11E-10,  avg # of iterations =  2.5

     total cpu time spent up to now is       38.9 secs

     total energy              =     -63.66903696 Ry
     estimated scf accuracy    <       0.00000001 Ry

     total magnetization       =     2.00 Bohr mag/cell
     absolute magnetization    =     2.05 Bohr mag/cell

     iteration #  5     ecut=   100.00 Ry     beta= 0.70
     Davidson diagonalization with overlap

---- Real-time Memory Report at c_bands before calling an iterative solver
           346 MiB given to the printing process from OS
             0 MiB allocation reported by mallinfo(arena+hblkhd)
        178787 MiB available memory on the node where the printing process lives
------------------
     ethr =  1.11E-10,  avg # of iterations =  1.5
 
     Magnetic moment per site  (integrated on atomic sphere of radius R)
     atom   1 (R=0.025)  charge=  2.8905  magn=  0.5605
     atom   2 (R=0.025)  charge=  2.8887  magn=  0.5602

     total cpu time spent up to now is       39.4 secs

     End of self-consistent calculation

 ------ SPIN UP ------------


          k = 0.0000 0.0000 0.0000 (855385 PWs)   bands (ev):

   -32.1037 -20.8006 -13.3960 -13.2128 -13.2128  -7.1413  -7.1413

     occupation numbers 
     1.0000   1.0000   1.0000   1.0000   1.0000   1.0000   1.0000

 ------ SPIN DOWN ----------


          k = 0.0000 0.0000 0.0000 (855385 PWs)   bands (ev):

   -30.8217 -18.9427 -12.5514 -11.2168 -11.2168  -4.6876  -4.6876

     occupation numbers 
     1.0000   1.0000   1.0000   1.0000   1.0000   0.0000   0.0000

     highest occupied, lowest unoccupied level (ev):    -7.1413   -4.6876

!    total energy              =     -63.66903696 Ry
     estimated scf accuracy    <          5.4E-11 Ry

     The total energy is the sum of the following terms:
     one-electron contribution =    -142.65098179 Ry
     hartree contribution      =      73.11052551 Ry
     xc contribution           =     -13.61194501 Ry
     ewald contribution        =      19.48336433 Ry

     total magnetization       =     2.00 Bohr mag/cell
     absolute magnetization    =     2.05 Bohr mag/cell

     convergence has been achieved in   5 iterations

     Forces acting on atoms (cartesian axes, Ry/au):

     atom    1 type  1   force =     0.00000000    0.00000000   -0.00002859
     atom    2 type  1   force =     0.00000000    0.00000000    0.00002859
     The non-local contrib.  to forces
     atom    1 type  1   force =     0.00000000    0.00000000    3.04593273
     atom    2 type  1   force =     0.00000000    0.00000000   -3.04578998
     The ionic contribution  to forces
     atom    1 type  1   force =    -0.00000000   -0.00000000  -12.91366154
     atom    2 type  1   force =     0.00000000    0.00000000   12.91366154
     The local contribution  to forces
     atom    1 type  1   force =     0.00000000   -0.00000000    9.86773038
     atom    2 type  1   force =     0.00000000   -0.00000000   -9.86782252
     The core correction contribution to forces
     atom    1 type  1   force =     0.00000000    0.00000000    0.00000000
     atom    2 type  1   force =     0.00000000    0.00000000    0.00000000
     The Hubbard contrib.    to forces
     atom    1 type  1   force =     0.00000000    0.00000000    0.00000000
     atom    2 type  1   force =     0.00000000    0.00000000    0.00000000
     The SCF correction term to forces
     atom    1 type  1   force =     0.00000000    0.00000000   -0.00000300
     atom    2 type  1   force =     0.00000000    0.00000000    0.00000670

     Total force =     0.000040     Total SCF correction =     0.000007
     SCF correction compared to forces is large: reduce conv_thr to get better values
     Energy error            =      1.3E-06 Ry
     Gradient error          =      2.9E-05 Ry/Bohr

     bfgs converged in   5 scf cycles and   3 bfgs steps
     (criteria: energy <  1.0E-04 Ry, force <  1.0E-03 Ry/Bohr)

     End of BFGS Geometry Optimization

     Final energy             =     -63.6690369647 Ry

     File ./scratch/o2.bfgs deleted, as requested
Begin final coordinates

ATOMIC_POSITIONS (angstrom)
O             0.0000000000        0.0000000000       -0.0204155111
O             0.0000000000        0.0000000000        1.2284155111
End final coordinates



     Writing all to output data dir ./scratch/o2.save/
 
     init_run     :      7.47s CPU      7.90s WALL (       1 calls)
     electrons    :     41.69s CPU     25.95s WALL (       5 calls)
     update_pot   :      3.15s CPU      1.61s WALL (       4 calls)
     forces       :      1.13s CPU      0.60s WALL (       5 calls)

     Called by init_run:
     wfcinit      :      0.33s CPU      0.28s WALL (       1 calls)
     wfcinit:atom :      0.00s CPU      0.03s WALL (       1 calls)
     wfcinit:wfcr :      0.29s CPU      0.18s WALL (       1 calls)
     potinit      :      0.68s CPU      0.40s WALL (       1 calls)
     hinit0       :      0.79s CPU      0.78s WALL (       1 calls)

     Called by electrons:
     c_bands      :     13.44s CPU      6.93s WALL (      38 calls)
     sum_band     :      7.38s CPU      3.81s WALL (      38 calls)
     v_of_rho     :     15.51s CPU      8.00s WALL (      42 calls)
     v_h          :      0.92s CPU      0.47s WALL (      42 calls)
     v_xc         :     14.57s CPU      7.50s WALL (      42 calls)
     mix_rho      :      3.01s CPU      1.57s WALL (      38 calls)

     Called by c_bands:
     init_us_2    :      0.02s CPU      0.05s WALL (      77 calls)
     init_us_2:cp :      0.02s CPU      0.05s WALL (      77 calls)
     cegterg      :     13.11s CPU      6.73s WALL (      38 calls)

     Called by sum_band:
     sum_band:wei :      0.01s CPU      0.00s WALL (      38 calls)
     sum_band:loo :      2.32s CPU      1.20s WALL (      38 calls)
     sum_band:buf :      0.00s CPU      0.00s WALL (      38 calls)
     sum_band:ini :      0.01s CPU      0.01s WALL (      38 calls)

     Called by *egterg:
     cdiaghg      :      0.05s CPU      0.03s WALL (     139 calls)
     cegterg:over :      0.20s CPU      0.10s WALL (     106 calls)
     cegterg:upda :      0.06s CPU      0.03s WALL (     106 calls)
     cegterg:last :      0.09s CPU      0.05s WALL (      90 calls)
     h_psi        :     12.78s CPU      6.56s WALL (     145 calls)
     g_psi        :      0.02s CPU      0.01s WALL (     106 calls)

     Called by h_psi:
     h_psi:calbec :      0.17s CPU      0.09s WALL (     145 calls)
     vloc_psi     :     12.53s CPU      6.42s WALL (     145 calls)
     add_vuspsi   :      0.03s CPU      0.02s WALL (     145 calls)

     General routines
     calbec       :      0.18s CPU      0.09s WALL (     165 calls)
     fft          :     12.25s CPU      6.31s WALL (     799 calls)
     ffts         :      1.12s CPU      0.58s WALL (      76 calls)
     fftw         :     12.81s CPU      6.55s WALL (    1888 calls)
 
     Parallel routines
 
     PWSCF        :     55.97s CPU     44.81s WALL

 
   This run was terminated on:  11: 9:44  19Sep2024            

=------------------------------------------------------------------------------=
   JOB DONE.
=------------------------------------------------------------------------------=
