<UPF version="2.0.1">
  <PP_INFO>

 This pseudopotential file has been produced using the code
 ONCVPSP  (Optimized Norm-Conservinng Vanderbilt PSeudopotential)
 scalar-relativistic version 4.0.1 06/20/2107 by D. R. Hamann
 The code is available through a link at URL www.mat-simresearch.com.
 Documentation with the package provides a full discription of the
 input data below.


 While it is not required under the terms of the GNU GPL, it is
 suggested that you cite D. R. Hamann, Phys. Rev. B 88, 085117 (2013)
 in any publication using these pseudopotentials.

    <PP_INPUTFILE>
# ATOM AND REFERENCE CONFIGURATION
# atsym  z   nc   nv     iexc    psfile
  Co 27.00    3    4 -116133      upf
#
#   n    l    f        energy (Ha)
    1    0    2.00
    2    0    2.00
    2    1    6.00
    3    0    2.00
    3    1    6.00
    3    2    7.00
    4    0    2.00
#
# PSEUDOPOTENTIAL AND OPTIMIZATION
# lmax
    2
#
#   l,   rc,      ep,       ncon, nbas, qcut
    0   1.60337  -3.76330    4    8   8.22557
    1   2.15603  -2.41210    4    8   7.38934
    2   2.08220  -0.30150    4    8   7.77929
#
# LOCAL POTENTIAL
# lloc, lpopt,  rc(5),   dvloc0
    4    5   1.05916      0.00000
#
# VANDERBILT-KLEINMAN-BYLANDER PROJECTORs
# l, nproj, debl
    0    2   3.56228
    1    2   2.36519
    2    2   0.80000
#
# MODEL CORE CHARGE
# icmod, fcfact, rcfact
    3   6.00000   1.80000
#
# LOG DERIVATIVE ANALYSIS
# epsh1, epsh2, depsh
  -12.00   12.00    0.02
#
# OUTPUT GRID (using internal log mesh)

# mmax =   2457, rmax =   4.4488E+01
#
# TEST CONFIGURATIONS
# ncnf
    0
# nvcnf
#   n    l    f
    </PP_INPUTFILE>
  </PP_INFO>
  <!--                               -->
  <!-- END OF HUMAN READABLE SECTION -->
  <!--                               -->
    <PP_HEADER
       generated="Generated using ONCVPSP code by D. R. Hamann"
       author="anonymous"
       date="260127"
       comment=""
       element="Co"
       pseudo_type="NC"
       relativistic="scalar"
       is_ultrasoft="F"
       is_paw="F"
       is_coulomb="F"
       has_so="F"
       has_wfc="F"
       has_gipaw="T"
       core_correction="T"
       functional="PBESOL"
       z_valence="   17.00"
       total_psenergy="  -2.67544631564E+02"
       rho_cutoff="   4.44884103870E+01"
       l_max="2"
       l_local="-1"
       mesh_size="  2457"
       number_of_wfc="4"
       number_of_proj="6"/>
 <PP_MESH dx="  5.98207167754747E-03" mesh="2457" xmin=" -1.08967393255464E+01" rmax="  4.44884103870058E+01" zmesh="1.0">
   <PP_R type="real"  size="  2457" columns="8">
  1.851852E-05  1.862963E-05  1.874141E-05  1.885386E-05  1.896698E-05  1.908078E-05  1.919527E-05  1.931044E-05
  1.942630E-05  1.954286E-05  1.966011E-05  1.977808E-05  1.989674E-05  2.001612E-05  2.013622E-05  2.025704E-05
  2.037858E-05  2.050085E-05  2.062386E-05  2.074760E-05  2.087209E-05  2.099732E-05  2.112330E-05  2.125004E-05
  2.137754E-05  2.150581E-05  2.163484E-05  2.176465E-05  2.189524E-05  2.202661E-05  2.215877E-05  2.229172E-05
  2.242547E-05  2.256003E-05  2.269539E-05  2.283156E-05  2.296855E-05  2.310636E-05  2.324500E-05  2.338447E-05
  2.352477E-05  2.366592E-05  2.380792E-05  2.395077E-05  2.409447E-05  2.423904E-05  2.438447E-05  2.453078E-05
  2.467796E-05  2.482603E-05  2.497499E-05  2.512484E-05  2.527559E-05  2.542724E-05  2.557980E-05  2.573328E-05
  2.588768E-05  2.604301E-05  2.619927E-05  2.635646E-05  2.651460E-05  2.667369E-05  2.683373E-05  2.699473E-05
  2.715670E-05  2.731964E-05  2.748356E-05  2.764846E-05  2.781435E-05  2.798124E-05  2.814912E-05  2.831802E-05
  2.848793E-05  2.865885E-05  2.883081E-05  2.900379E-05  2.917782E-05  2.935288E-05  2.952900E-05  2.970617E-05
  2.988441E-05  3.006372E-05  3.024410E-05  3.042556E-05  3.060812E-05  3.079177E-05  3.097652E-05  3.116238E-05
  3.134935E-05  3.153745E-05  3.172667E-05  3.191703E-05  3.210853E-05  3.230118E-05  3.249499E-05  3.268996E-05
  3.288610E-05  3.308342E-05  3.328192E-05  3.348161E-05  3.368250E-05  3.388459E-05  3.408790E-05  3.429243E-05
  3.449818E-05  3.470517E-05  3.491340E-05  3.512288E-05  3.533362E-05  3.554562E-05  3.575890E-05  3.597345E-05
  3.618929E-05  3.640643E-05  3.662487E-05  3.684462E-05  3.706568E-05  3.728808E-05  3.751181E-05  3.773688E-05
  3.796330E-05  3.819108E-05  3.842022E-05  3.865074E-05  3.888265E-05  3.911595E-05  3.935064E-05  3.958674E-05
  3.982427E-05  4.006321E-05  4.030359E-05  4.054541E-05  4.078868E-05  4.103342E-05  4.127962E-05  4.152729E-05
  4.177646E-05  4.202712E-05  4.227928E-05  4.253296E-05  4.278815E-05  4.304488E-05  4.330315E-05  4.356297E-05
  4.382435E-05  4.408729E-05  4.435182E-05  4.461793E-05  4.488564E-05  4.515495E-05  4.542588E-05  4.569844E-05
  4.597263E-05  4.624846E-05  4.652595E-05  4.680511E-05  4.708594E-05  4.736845E-05  4.765267E-05  4.793858E-05
  4.822621E-05  4.851557E-05  4.880666E-05  4.909950E-05  4.939410E-05  4.969046E-05  4.998861E-05  5.028854E-05
  5.059027E-05  5.089381E-05  5.119917E-05  5.150637E-05  5.181541E-05  5.212630E-05  5.243906E-05  5.275369E-05
  5.307021E-05  5.338864E-05  5.370897E-05  5.403122E-05  5.435541E-05  5.468154E-05  5.500963E-05  5.533969E-05
  5.567173E-05  5.600576E-05  5.634179E-05  5.667984E-05  5.701992E-05  5.736204E-05  5.770621E-05  5.805245E-05
  5.840077E-05  5.875117E-05  5.910368E-05  5.945830E-05  5.981505E-05  6.017394E-05  6.053498E-05  6.089819E-05
  6.126358E-05  6.163116E-05  6.200095E-05  6.237296E-05  6.274719E-05  6.312368E-05  6.350242E-05  6.388343E-05
  6.426673E-05  6.465233E-05  6.504025E-05  6.543049E-05  6.582307E-05  6.621801E-05  6.661532E-05  6.701501E-05
  6.741710E-05  6.782160E-05  6.822853E-05  6.863790E-05  6.904973E-05  6.946403E-05  6.988081E-05  7.030010E-05
  7.072190E-05  7.114623E-05  7.157311E-05  7.200255E-05  7.243456E-05  7.286917E-05  7.330639E-05  7.374622E-05
  7.418870E-05  7.463383E-05  7.508164E-05  7.553213E-05  7.598532E-05  7.644123E-05  7.689988E-05  7.736128E-05
  7.782545E-05  7.829240E-05  7.876215E-05  7.923473E-05  7.971013E-05  8.018839E-05  8.066952E-05  8.115354E-05
  8.164046E-05  8.213031E-05  8.262309E-05  8.311883E-05  8.361754E-05  8.411924E-05  8.462396E-05  8.513170E-05
  8.564249E-05  8.615635E-05  8.667329E-05  8.719333E-05  8.771649E-05  8.824279E-05  8.877224E-05  8.930488E-05
  8.984070E-05  9.037975E-05  9.092203E-05  9.146756E-05  9.201637E-05  9.256846E-05  9.312387E-05  9.368262E-05
  9.424471E-05  9.481018E-05  9.537904E-05  9.595132E-05  9.652702E-05  9.710619E-05  9.768882E-05  9.827496E-05
  9.886461E-05  9.945779E-05  1.000545E-04  1.006549E-04  1.012588E-04  1.018664E-04  1.024775E-04  1.030924E-04
  1.037110E-04  1.043332E-04  1.049592E-04  1.055890E-04  1.062225E-04  1.068599E-04  1.075010E-04  1.081460E-04
  1.087949E-04  1.094477E-04  1.101044E-04  1.107650E-04  1.114296E-04  1.120981E-04  1.127707E-04  1.134474E-04
  1.141280E-04  1.148128E-04  1.155017E-04  1.161947E-04  1.168919E-04  1.175932E-04  1.182988E-04  1.190086E-04
  1.197226E-04  1.204410E-04  1.211636E-04  1.218906E-04  1.226219E-04  1.233577E-04  1.240978E-04  1.248424E-04
  1.255914E-04  1.263450E-04  1.271031E-04  1.278657E-04  1.286329E-04  1.294047E-04  1.301811E-04  1.309622E-04
  1.317480E-04  1.325385E-04  1.333337E-04  1.341337E-04  1.349385E-04  1.357481E-04  1.365626E-04  1.373820E-04
  1.382063E-04  1.390355E-04  1.398697E-04  1.407089E-04  1.415532E-04  1.424025E-04  1.432569E-04  1.441165E-04
  1.449812E-04  1.458511E-04  1.467262E-04  1.476065E-04  1.484922E-04  1.493831E-04  1.502794E-04  1.511811E-04
  1.520882E-04  1.530007E-04  1.539187E-04  1.548422E-04  1.557713E-04  1.567059E-04  1.576461E-04  1.585920E-04
  1.595436E-04  1.605008E-04  1.614638E-04  1.624326E-04  1.634072E-04  1.643877E-04  1.653740E-04  1.663662E-04
  1.673644E-04  1.683686E-04  1.693788E-04  1.703951E-04  1.714175E-04  1.724460E-04  1.734806E-04  1.745215E-04
  1.755687E-04  1.766221E-04  1.776818E-04  1.787479E-04  1.798204E-04  1.808993E-04  1.819847E-04  1.830766E-04
  1.841751E-04  1.852801E-04  1.863918E-04  1.875101E-04  1.886352E-04  1.897670E-04  1.909056E-04  1.920511E-04
  1.932034E-04  1.943626E-04  1.955288E-04  1.967019E-04  1.978821E-04  1.990694E-04  2.002639E-04  2.014654E-04
  2.026742E-04  2.038903E-04  2.051136E-04  2.063443E-04  2.075824E-04  2.088279E-04  2.100808E-04  2.113413E-04
  2.126094E-04  2.138850E-04  2.151683E-04  2.164593E-04  2.177581E-04  2.190646E-04  2.203790E-04  2.217013E-04
  2.230315E-04  2.243697E-04  2.257159E-04  2.270702E-04  2.284326E-04  2.298032E-04  2.311820E-04  2.325691E-04
  2.339646E-04  2.353683E-04  2.367806E-04  2.382012E-04  2.396304E-04  2.410682E-04  2.425146E-04  2.439697E-04
  2.454335E-04  2.469061E-04  2.483876E-04  2.498779E-04  2.513772E-04  2.528854E-04  2.544027E-04  2.559292E-04
  2.574647E-04  2.590095E-04  2.605636E-04  2.621270E-04  2.636997E-04  2.652819E-04  2.668736E-04  2.684749E-04
  2.700857E-04  2.717062E-04  2.733365E-04  2.749765E-04  2.766263E-04  2.782861E-04  2.799558E-04  2.816355E-04
  2.833254E-04  2.850253E-04  2.867355E-04  2.884559E-04  2.901866E-04  2.919277E-04  2.936793E-04  2.954414E-04
  2.972140E-04  2.989973E-04  3.007913E-04  3.025960E-04  3.044116E-04  3.062381E-04  3.080755E-04  3.099240E-04
  3.117835E-04  3.136542E-04  3.155361E-04  3.174294E-04  3.193339E-04  3.212499E-04  3.231774E-04  3.251165E-04
  3.270672E-04  3.290296E-04  3.310038E-04  3.329898E-04  3.349877E-04  3.369977E-04  3.390196E-04  3.410538E-04
  3.431001E-04  3.451587E-04  3.472296E-04  3.493130E-04  3.514089E-04  3.535174E-04  3.556385E-04  3.577723E-04
  3.599189E-04  3.620784E-04  3.642509E-04  3.664364E-04  3.686350E-04  3.708468E-04  3.730719E-04  3.753104E-04
  3.775622E-04  3.798276E-04  3.821066E-04  3.843992E-04  3.867056E-04  3.890258E-04  3.913600E-04  3.937081E-04
  3.960704E-04  3.984468E-04  4.008375E-04  4.032425E-04  4.056620E-04  4.080959E-04  4.105445E-04  4.130078E-04
  4.154858E-04  4.179787E-04  4.204866E-04  4.230095E-04  4.255476E-04  4.281009E-04  4.306695E-04  4.332535E-04
  4.358530E-04  4.384681E-04  4.410989E-04  4.437455E-04  4.464080E-04  4.490865E-04  4.517810E-04  4.544917E-04
  4.572186E-04  4.599619E-04  4.627217E-04  4.654980E-04  4.682910E-04  4.711008E-04  4.739274E-04  4.767709E-04
  4.796316E-04  4.825093E-04  4.854044E-04  4.883168E-04  4.912467E-04  4.941942E-04  4.971594E-04  5.001423E-04
  5.031432E-04  5.061620E-04  5.091990E-04  5.122542E-04  5.153277E-04  5.184197E-04  5.215302E-04  5.246594E-04
  5.278074E-04  5.309742E-04  5.341601E-04  5.373650E-04  5.405892E-04  5.438327E-04  5.470957E-04  5.503783E-04
  5.536806E-04  5.570027E-04  5.603447E-04  5.637067E-04  5.670890E-04  5.704915E-04  5.739145E-04  5.773580E-04
  5.808221E-04  5.843070E-04  5.878129E-04  5.913398E-04  5.948878E-04  5.984571E-04  6.020479E-04  6.056602E-04
  6.092941E-04  6.129499E-04  6.166276E-04  6.203273E-04  6.240493E-04  6.277936E-04  6.315604E-04  6.353497E-04
  6.391618E-04  6.429968E-04  6.468548E-04  6.507359E-04  6.546403E-04  6.585682E-04  6.625196E-04  6.664947E-04
  6.704937E-04  6.745166E-04  6.785637E-04  6.826351E-04  6.867309E-04  6.908513E-04  6.949964E-04  6.991664E-04
  7.033614E-04  7.075815E-04  7.118270E-04  7.160980E-04  7.203946E-04  7.247170E-04  7.290653E-04  7.334396E-04
  7.378403E-04  7.422673E-04  7.467209E-04  7.512013E-04  7.557085E-04  7.602427E-04  7.648042E-04  7.693930E-04
  7.740094E-04  7.786534E-04  7.833253E-04  7.880253E-04  7.927534E-04  7.975100E-04  8.022950E-04  8.071088E-04
  8.119514E-04  8.168231E-04  8.217241E-04  8.266544E-04  8.316144E-04  8.366040E-04  8.416237E-04  8.466734E-04
  8.517534E-04  8.568640E-04  8.620052E-04  8.671772E-04  8.723802E-04  8.776145E-04  8.828802E-04  8.881775E-04
  8.935066E-04  8.988676E-04  9.042608E-04  9.096864E-04  9.151445E-04  9.206354E-04  9.261592E-04  9.317161E-04
  9.373064E-04  9.429303E-04  9.485878E-04  9.542794E-04  9.600050E-04  9.657651E-04  9.715597E-04  9.773890E-04
  9.832534E-04  9.891529E-04  9.950878E-04  1.001058E-03  1.007065E-03  1.013107E-03  1.019186E-03  1.025301E-03
  1.031453E-03  1.037641E-03  1.043867E-03  1.050130E-03  1.056431E-03  1.062770E-03  1.069146E-03  1.075561E-03
  1.082015E-03  1.088507E-03  1.095038E-03  1.101608E-03  1.108218E-03  1.114867E-03  1.121556E-03  1.128285E-03
  1.135055E-03  1.141866E-03  1.148717E-03  1.155609E-03  1.162543E-03  1.169518E-03  1.176535E-03  1.183594E-03
  1.190696E-03  1.197840E-03  1.205027E-03  1.212257E-03  1.219531E-03  1.226848E-03  1.234209E-03  1.241614E-03
  1.249064E-03  1.256558E-03  1.264098E-03  1.271682E-03  1.279312E-03  1.286988E-03  1.294710E-03  1.302478E-03
  1.310293E-03  1.318155E-03  1.326064E-03  1.334020E-03  1.342024E-03  1.350077E-03  1.358177E-03  1.366326E-03
  1.374524E-03  1.382771E-03  1.391068E-03  1.399414E-03  1.407811E-03  1.416258E-03  1.424755E-03  1.433304E-03
  1.441904E-03  1.450555E-03  1.459258E-03  1.468014E-03  1.476822E-03  1.485683E-03  1.494597E-03  1.503565E-03
  1.512586E-03  1.521661E-03  1.530791E-03  1.539976E-03  1.549216E-03  1.558511E-03  1.567862E-03  1.577270E-03
  1.586733E-03  1.596254E-03  1.605831E-03  1.615466E-03  1.625159E-03  1.634910E-03  1.644719E-03  1.654588E-03
  1.664515E-03  1.674502E-03  1.684549E-03  1.694657E-03  1.704824E-03  1.715053E-03  1.725344E-03  1.735696E-03
  1.746110E-03  1.756587E-03  1.767126E-03  1.777729E-03  1.788395E-03  1.799126E-03  1.809920E-03  1.820780E-03
  1.831705E-03  1.842695E-03  1.853751E-03  1.864873E-03  1.876063E-03  1.887319E-03  1.898643E-03  1.910035E-03
  1.921495E-03  1.933024E-03  1.944622E-03  1.956290E-03  1.968028E-03  1.979836E-03  1.991715E-03  2.003665E-03
  2.015687E-03  2.027781E-03  2.039948E-03  2.052188E-03  2.064501E-03  2.076888E-03  2.089349E-03  2.101885E-03
  2.114496E-03  2.127183E-03  2.139947E-03  2.152786E-03  2.165703E-03  2.178697E-03  2.191769E-03  2.204920E-03
  2.218150E-03  2.231458E-03  2.244847E-03  2.258316E-03  2.271866E-03  2.285497E-03  2.299210E-03  2.313006E-03
  2.326884E-03  2.340845E-03  2.354890E-03  2.369019E-03  2.383233E-03  2.397533E-03  2.411918E-03  2.426390E-03
  2.440948E-03  2.455594E-03  2.470327E-03  2.485149E-03  2.500060E-03  2.515060E-03  2.530151E-03  2.545332E-03
  2.560604E-03  2.575967E-03  2.591423E-03  2.606972E-03  2.622613E-03  2.638349E-03  2.654179E-03  2.670104E-03
  2.686125E-03  2.702242E-03  2.718455E-03  2.734766E-03  2.751174E-03  2.767681E-03  2.784288E-03  2.800993E-03
  2.817799E-03  2.834706E-03  2.851714E-03  2.868825E-03  2.886037E-03  2.903354E-03  2.920774E-03  2.938298E-03
  2.955928E-03  2.973664E-03  2.991506E-03  3.009455E-03  3.027512E-03  3.045677E-03  3.063951E-03  3.082334E-03
  3.100828E-03  3.119433E-03  3.138150E-03  3.156979E-03  3.175921E-03  3.194976E-03  3.214146E-03  3.233431E-03
  3.252832E-03  3.272349E-03  3.291983E-03  3.311735E-03  3.331605E-03  3.351595E-03  3.371704E-03  3.391934E-03
  3.412286E-03  3.432760E-03  3.453356E-03  3.474076E-03  3.494921E-03  3.515890E-03  3.536986E-03  3.558208E-03
  3.579557E-03  3.601034E-03  3.622640E-03  3.644376E-03  3.666243E-03  3.688240E-03  3.710369E-03  3.732632E-03
  3.755027E-03  3.777558E-03  3.800223E-03  3.823024E-03  3.845962E-03  3.869038E-03  3.892252E-03  3.915606E-03
  3.939100E-03  3.962734E-03  3.986511E-03  4.010430E-03  4.034492E-03  4.058699E-03  4.083051E-03  4.107550E-03
  4.132195E-03  4.156988E-03  4.181930E-03  4.207022E-03  4.232264E-03  4.257657E-03  4.283203E-03  4.308903E-03
  4.334756E-03  4.360765E-03  4.386929E-03  4.413251E-03  4.439730E-03  4.466369E-03  4.493167E-03  4.520126E-03
  4.547247E-03  4.574530E-03  4.601977E-03  4.629589E-03  4.657367E-03  4.685311E-03  4.713423E-03  4.741703E-03
  4.770153E-03  4.798774E-03  4.827567E-03  4.856532E-03  4.885672E-03  4.914986E-03  4.944476E-03  4.974142E-03
  5.003987E-03  5.034011E-03  5.064215E-03  5.094601E-03  5.125168E-03  5.155919E-03  5.186855E-03  5.217976E-03
  5.249284E-03  5.280779E-03  5.312464E-03  5.344339E-03  5.376405E-03  5.408663E-03  5.441115E-03  5.473762E-03
  5.506605E-03  5.539644E-03  5.572882E-03  5.606319E-03  5.639957E-03  5.673797E-03  5.707840E-03  5.742087E-03
  5.776539E-03  5.811199E-03  5.846066E-03  5.881142E-03  5.916429E-03  5.951928E-03  5.987639E-03  6.023565E-03
  6.059706E-03  6.096065E-03  6.132641E-03  6.169437E-03  6.206453E-03  6.243692E-03  6.281154E-03  6.318841E-03
  6.356754E-03  6.394895E-03  6.433264E-03  6.471864E-03  6.510695E-03  6.549759E-03  6.589058E-03  6.628592E-03
  6.668364E-03  6.708374E-03  6.748624E-03  6.789116E-03  6.829850E-03  6.870830E-03  6.912054E-03  6.953527E-03
  6.995248E-03  7.037219E-03  7.079443E-03  7.121919E-03  7.164651E-03  7.207639E-03  7.250885E-03  7.294390E-03
  7.338156E-03  7.382185E-03  7.426478E-03  7.471037E-03  7.515863E-03  7.560959E-03  7.606324E-03  7.651962E-03
  7.697874E-03  7.744061E-03  7.790526E-03  7.837269E-03  7.884293E-03  7.931598E-03  7.979188E-03  8.027063E-03
  8.075225E-03  8.123677E-03  8.172419E-03  8.221453E-03  8.270782E-03  8.320407E-03  8.370329E-03  8.420551E-03
  8.471074E-03  8.521901E-03  8.573032E-03  8.624470E-03  8.676217E-03  8.728275E-03  8.780644E-03  8.833328E-03
  8.886328E-03  8.939646E-03  8.993284E-03  9.047244E-03  9.101527E-03  9.156136E-03  9.211073E-03  9.266340E-03
  9.321938E-03  9.377869E-03  9.434136E-03  9.490741E-03  9.547686E-03  9.604972E-03  9.662602E-03  9.720577E-03
  9.778901E-03  9.837574E-03  9.896600E-03  9.955979E-03  1.001571E-02  1.007581E-02  1.013626E-02  1.019708E-02
  1.025826E-02  1.031981E-02  1.038173E-02  1.044402E-02  1.050669E-02  1.056973E-02  1.063315E-02  1.069694E-02
  1.076113E-02  1.082569E-02  1.089065E-02  1.095599E-02  1.102173E-02  1.108786E-02  1.115438E-02  1.122131E-02
  1.128864E-02  1.135637E-02  1.142451E-02  1.149306E-02  1.156201E-02  1.163139E-02  1.170117E-02  1.177138E-02
  1.184201E-02  1.191306E-02  1.198454E-02  1.205645E-02  1.212879E-02  1.220156E-02  1.227477E-02  1.234842E-02
  1.242251E-02  1.249704E-02  1.257202E-02  1.264746E-02  1.272334E-02  1.279968E-02  1.287648E-02  1.295374E-02
  1.303146E-02  1.310965E-02  1.318831E-02  1.326744E-02  1.334704E-02  1.342712E-02  1.350769E-02  1.358873E-02
  1.367027E-02  1.375229E-02  1.383480E-02  1.391781E-02  1.400132E-02  1.408532E-02  1.416984E-02  1.425486E-02
  1.434038E-02  1.442643E-02  1.451299E-02  1.460006E-02  1.468766E-02  1.477579E-02  1.486444E-02  1.495363E-02
  1.504335E-02  1.513361E-02  1.522441E-02  1.531576E-02  1.540766E-02  1.550010E-02  1.559310E-02  1.568666E-02
  1.578078E-02  1.587547E-02  1.597072E-02  1.606654E-02  1.616294E-02  1.625992E-02  1.635748E-02  1.645562E-02
  1.655436E-02  1.665368E-02  1.675361E-02  1.685413E-02  1.695525E-02  1.705698E-02  1.715933E-02  1.726228E-02
  1.736586E-02  1.747005E-02  1.757487E-02  1.768032E-02  1.778640E-02  1.789312E-02  1.800048E-02  1.810848E-02
  1.821713E-02  1.832644E-02  1.843639E-02  1.854701E-02  1.865829E-02  1.877024E-02  1.888287E-02  1.899616E-02
  1.911014E-02  1.922480E-02  1.934015E-02  1.945619E-02  1.957293E-02  1.969037E-02  1.980851E-02  1.992736E-02
  2.004692E-02  2.016720E-02  2.028821E-02  2.040994E-02  2.053240E-02  2.065559E-02  2.077952E-02  2.090420E-02
  2.102963E-02  2.115580E-02  2.128274E-02  2.141044E-02  2.153890E-02  2.166813E-02  2.179814E-02  2.192893E-02
  2.206050E-02  2.219287E-02  2.232602E-02  2.245998E-02  2.259474E-02  2.273031E-02  2.286669E-02  2.300389E-02
  2.314191E-02  2.328076E-02  2.342045E-02  2.356097E-02  2.370234E-02  2.384455E-02  2.398762E-02  2.413154E-02
  2.427633E-02  2.442199E-02  2.456852E-02  2.471594E-02  2.486423E-02  2.501342E-02  2.516350E-02  2.531448E-02
  2.546636E-02  2.561916E-02  2.577288E-02  2.592751E-02  2.608308E-02  2.623958E-02  2.639702E-02  2.655540E-02
  2.671473E-02  2.687502E-02  2.703627E-02  2.719849E-02  2.736168E-02  2.752585E-02  2.769100E-02  2.785715E-02
  2.802429E-02  2.819244E-02  2.836159E-02  2.853176E-02  2.870295E-02  2.887517E-02  2.904842E-02  2.922271E-02
  2.939805E-02  2.957444E-02  2.975188E-02  2.993039E-02  3.010998E-02  3.029064E-02  3.047238E-02  3.065521E-02
  3.083915E-02  3.102418E-02  3.121033E-02  3.139759E-02  3.158597E-02  3.177549E-02  3.196614E-02  3.215794E-02
  3.235089E-02  3.254499E-02  3.274026E-02  3.293670E-02  3.313432E-02  3.333313E-02  3.353313E-02  3.373433E-02
  3.393673E-02  3.414035E-02  3.434519E-02  3.455127E-02  3.475857E-02  3.496713E-02  3.517693E-02  3.538799E-02
  3.560032E-02  3.581392E-02  3.602880E-02  3.624498E-02  3.646245E-02  3.668122E-02  3.690131E-02  3.712272E-02
  3.734545E-02  3.756952E-02  3.779494E-02  3.802171E-02  3.824984E-02  3.847934E-02  3.871022E-02  3.894248E-02
  3.917613E-02  3.941119E-02  3.964766E-02  3.988554E-02  4.012486E-02  4.036560E-02  4.060780E-02  4.085145E-02
  4.109655E-02  4.134313E-02  4.159119E-02  4.184074E-02  4.209178E-02  4.234433E-02  4.259840E-02  4.285399E-02
  4.311111E-02  4.336978E-02  4.363000E-02  4.389178E-02  4.415513E-02  4.442006E-02  4.468658E-02  4.495470E-02
  4.522443E-02  4.549578E-02  4.576875E-02  4.604336E-02  4.631962E-02  4.659754E-02  4.687713E-02  4.715839E-02
  4.744134E-02  4.772599E-02  4.801234E-02  4.830042E-02  4.859022E-02  4.888176E-02  4.917505E-02  4.947010E-02
  4.976692E-02  5.006552E-02  5.036592E-02  5.066811E-02  5.097212E-02  5.127795E-02  5.158562E-02  5.189514E-02
  5.220651E-02  5.251975E-02  5.283486E-02  5.315187E-02  5.347078E-02  5.379161E-02  5.411436E-02  5.443905E-02
  5.476568E-02  5.509427E-02  5.542484E-02  5.575739E-02  5.609193E-02  5.642848E-02  5.676706E-02  5.710766E-02
  5.745030E-02  5.779501E-02  5.814178E-02  5.849063E-02  5.884157E-02  5.919462E-02  5.954979E-02  5.990709E-02
  6.026653E-02  6.062813E-02  6.099190E-02  6.135785E-02  6.172599E-02  6.209635E-02  6.246893E-02  6.284374E-02
  6.322080E-02  6.360013E-02  6.398173E-02  6.436562E-02  6.475181E-02  6.514033E-02  6.553117E-02  6.592435E-02
  6.631990E-02  6.671782E-02  6.711813E-02  6.752084E-02  6.792596E-02  6.833352E-02  6.874352E-02  6.915598E-02
  6.957091E-02  6.998834E-02  7.040827E-02  7.083072E-02  7.125570E-02  7.168324E-02  7.211334E-02  7.254602E-02
  7.298129E-02  7.341918E-02  7.385970E-02  7.430285E-02  7.474867E-02  7.519716E-02  7.564835E-02  7.610224E-02
  7.655885E-02  7.701820E-02  7.748031E-02  7.794519E-02  7.841287E-02  7.888334E-02  7.935664E-02  7.983278E-02
  8.031178E-02  8.079365E-02  8.127841E-02  8.176608E-02  8.225668E-02  8.275022E-02  8.324672E-02  8.374620E-02
  8.424868E-02  8.475417E-02  8.526269E-02  8.577427E-02  8.628892E-02  8.680665E-02  8.732749E-02  8.785146E-02
  8.837856E-02  8.890884E-02  8.944229E-02  8.997894E-02  9.051882E-02  9.106193E-02  9.160830E-02  9.215795E-02
  9.271090E-02  9.326716E-02  9.382677E-02  9.438973E-02  9.495606E-02  9.552580E-02  9.609896E-02  9.667555E-02
  9.725560E-02  9.783914E-02  9.842617E-02  9.901673E-02  9.961083E-02  1.002085E-01  1.008097E-01  1.014146E-01
  1.020231E-01  1.026352E-01  1.032510E-01  1.038705E-01  1.044938E-01  1.051207E-01  1.057515E-01  1.063860E-01
  1.070243E-01  1.076664E-01  1.083124E-01  1.089623E-01  1.096161E-01  1.102738E-01  1.109354E-01  1.116010E-01
  1.122706E-01  1.129443E-01  1.136219E-01  1.143037E-01  1.149895E-01  1.156794E-01  1.163735E-01  1.170717E-01
  1.177742E-01  1.184808E-01  1.191917E-01  1.199068E-01  1.206263E-01  1.213500E-01  1.220781E-01  1.228106E-01
  1.235475E-01  1.242888E-01  1.250345E-01  1.257847E-01  1.265394E-01  1.272986E-01  1.280624E-01  1.288308E-01
  1.296038E-01  1.303814E-01  1.311637E-01  1.319507E-01  1.327424E-01  1.335388E-01  1.343401E-01  1.351461E-01
  1.359570E-01  1.367727E-01  1.375934E-01  1.384189E-01  1.392494E-01  1.400849E-01  1.409255E-01  1.417710E-01
  1.426216E-01  1.434774E-01  1.443382E-01  1.452043E-01  1.460755E-01  1.469519E-01  1.478336E-01  1.487206E-01
  1.496130E-01  1.505106E-01  1.514137E-01  1.523222E-01  1.532361E-01  1.541555E-01  1.550805E-01  1.560110E-01
  1.569470E-01  1.578887E-01  1.588360E-01  1.597891E-01  1.607478E-01  1.617123E-01  1.626826E-01  1.636586E-01
  1.646406E-01  1.656284E-01  1.666222E-01  1.676219E-01  1.686277E-01  1.696394E-01  1.706573E-01  1.716812E-01
  1.727113E-01  1.737476E-01  1.747901E-01  1.758388E-01  1.768938E-01  1.779552E-01  1.790229E-01  1.800971E-01
  1.811777E-01  1.822647E-01  1.833583E-01  1.844585E-01  1.855652E-01  1.866786E-01  1.877987E-01  1.889255E-01
  1.900590E-01  1.911994E-01  1.923466E-01  1.935006E-01  1.946616E-01  1.958296E-01  1.970046E-01  1.981866E-01
  1.993757E-01  2.005720E-01  2.017754E-01  2.029861E-01  2.042040E-01  2.054292E-01  2.066618E-01  2.079018E-01
  2.091492E-01  2.104041E-01  2.116665E-01  2.129365E-01  2.142141E-01  2.154994E-01  2.167924E-01  2.180932E-01
  2.194017E-01  2.207181E-01  2.220424E-01  2.233747E-01  2.247149E-01  2.260632E-01  2.274196E-01  2.287841E-01
  2.301568E-01  2.315378E-01  2.329270E-01  2.343246E-01  2.357305E-01  2.371449E-01  2.385678E-01  2.399992E-01
  2.414392E-01  2.428878E-01  2.443451E-01  2.458112E-01  2.472861E-01  2.487698E-01  2.502624E-01  2.517640E-01
  2.532745E-01  2.547942E-01  2.563230E-01  2.578609E-01  2.594081E-01  2.609645E-01  2.625303E-01  2.641055E-01
  2.656901E-01  2.672843E-01  2.688880E-01  2.705013E-01  2.721243E-01  2.737570E-01  2.753996E-01  2.770520E-01
  2.787143E-01  2.803866E-01  2.820689E-01  2.837613E-01  2.854639E-01  2.871767E-01  2.888997E-01  2.906331E-01
  2.923769E-01  2.941312E-01  2.958960E-01  2.976713E-01  2.994574E-01  3.012541E-01  3.030616E-01  3.048800E-01
  3.067093E-01  3.085495E-01  3.104008E-01  3.122632E-01  3.141368E-01  3.160216E-01  3.179178E-01  3.198253E-01
  3.217442E-01  3.236747E-01  3.256167E-01  3.275704E-01  3.295359E-01  3.315131E-01  3.335022E-01  3.355032E-01
  3.375162E-01  3.395413E-01  3.415785E-01  3.436280E-01  3.456898E-01  3.477639E-01  3.498505E-01  3.519496E-01
  3.540613E-01  3.561857E-01  3.583228E-01  3.604727E-01  3.626356E-01  3.648114E-01  3.670002E-01  3.692022E-01
  3.714175E-01  3.736460E-01  3.758878E-01  3.781432E-01  3.804120E-01  3.826945E-01  3.849907E-01  3.873006E-01
  3.896244E-01  3.919622E-01  3.943139E-01  3.966798E-01  3.990599E-01  4.014543E-01  4.038630E-01  4.062862E-01
  4.087239E-01  4.111762E-01  4.136433E-01  4.161251E-01  4.186219E-01  4.211336E-01  4.236604E-01  4.262024E-01
  4.287596E-01  4.313322E-01  4.339201E-01  4.365237E-01  4.391428E-01  4.417777E-01  4.444283E-01  4.470949E-01
  4.497775E-01  4.524761E-01  4.551910E-01  4.579221E-01  4.606697E-01  4.634337E-01  4.662143E-01  4.690116E-01
  4.718256E-01  4.746566E-01  4.775045E-01  4.803696E-01  4.832518E-01  4.861513E-01  4.890682E-01  4.920026E-01
  4.949546E-01  4.979244E-01  5.009119E-01  5.039174E-01  5.069409E-01  5.099825E-01  5.130424E-01  5.161207E-01
  5.192174E-01  5.223327E-01  5.254667E-01  5.286195E-01  5.317912E-01  5.349820E-01  5.381919E-01  5.414210E-01
  5.446695E-01  5.479375E-01  5.512252E-01  5.545325E-01  5.578597E-01  5.612069E-01  5.645741E-01  5.679616E-01
  5.713693E-01  5.747975E-01  5.782463E-01  5.817158E-01  5.852061E-01  5.887173E-01  5.922496E-01  5.958031E-01
  5.993780E-01  6.029742E-01  6.065921E-01  6.102316E-01  6.138930E-01  6.175764E-01  6.212818E-01  6.250095E-01
  6.287596E-01  6.325321E-01  6.363273E-01  6.401453E-01  6.439862E-01  6.478501E-01  6.517372E-01  6.556476E-01
  6.595815E-01  6.635390E-01  6.675202E-01  6.715253E-01  6.755545E-01  6.796078E-01  6.836855E-01  6.877876E-01
  6.919143E-01  6.960658E-01  7.002422E-01  7.044436E-01  7.086703E-01  7.129223E-01  7.171999E-01  7.215031E-01
  7.258321E-01  7.301871E-01  7.345682E-01  7.389756E-01  7.434094E-01  7.478699E-01  7.523571E-01  7.568713E-01
  7.614125E-01  7.659810E-01  7.705769E-01  7.752003E-01  7.798515E-01  7.845306E-01  7.892378E-01  7.939732E-01
  7.987371E-01  8.035295E-01  8.083507E-01  8.132008E-01  8.180800E-01  8.229885E-01  8.279264E-01  8.328940E-01
  8.378913E-01  8.429187E-01  8.479762E-01  8.530640E-01  8.581824E-01  8.633315E-01  8.685115E-01  8.737226E-01
  8.789649E-01  8.842387E-01  8.895441E-01  8.948814E-01  9.002507E-01  9.056522E-01  9.110861E-01  9.165526E-01
  9.220519E-01  9.275842E-01  9.331497E-01  9.387486E-01  9.443811E-01  9.500474E-01  9.557477E-01  9.614822E-01
  9.672511E-01  9.730546E-01  9.788929E-01  9.847663E-01  9.906749E-01  9.966189E-01  1.002599E+00  1.008614E+00
  1.014666E+00  1.020754E+00  1.026878E+00  1.033040E+00  1.039238E+00  1.045473E+00  1.051746E+00  1.058057E+00
  1.064405E+00  1.070791E+00  1.077216E+00  1.083680E+00  1.090182E+00  1.096723E+00  1.103303E+00  1.109923E+00
  1.116582E+00  1.123282E+00  1.130022E+00  1.136802E+00  1.143622E+00  1.150484E+00  1.157387E+00  1.164331E+00
  1.171317E+00  1.178345E+00  1.185415E+00  1.192528E+00  1.199683E+00  1.206881E+00  1.214122E+00  1.221407E+00
  1.228736E+00  1.236108E+00  1.243525E+00  1.250986E+00  1.258492E+00  1.266043E+00  1.273639E+00  1.281281E+00
  1.288968E+00  1.296702E+00  1.304483E+00  1.312309E+00  1.320183E+00  1.328104E+00  1.336073E+00  1.344089E+00
  1.352154E+00  1.360267E+00  1.368428E+00  1.376639E+00  1.384899E+00  1.393208E+00  1.401568E+00  1.409977E+00
  1.418437E+00  1.426947E+00  1.435509E+00  1.444122E+00  1.452787E+00  1.461504E+00  1.470273E+00  1.479094E+00
  1.487969E+00  1.496897E+00  1.505878E+00  1.514913E+00  1.524003E+00  1.533147E+00  1.542346E+00  1.551600E+00
  1.560909E+00  1.570275E+00  1.579696E+00  1.589175E+00  1.598710E+00  1.608302E+00  1.617952E+00  1.627659E+00
  1.637425E+00  1.647250E+00  1.657133E+00  1.667076E+00  1.677079E+00  1.687141E+00  1.697264E+00  1.707448E+00
  1.717692E+00  1.727998E+00  1.738366E+00  1.748797E+00  1.759289E+00  1.769845E+00  1.780464E+00  1.791147E+00
  1.801894E+00  1.812705E+00  1.823582E+00  1.834523E+00  1.845530E+00  1.856603E+00  1.867743E+00  1.878949E+00
  1.890223E+00  1.901564E+00  1.912974E+00  1.924452E+00  1.935998E+00  1.947614E+00  1.959300E+00  1.971056E+00