
     Program PWSCF v.7.2 starts on  4Nov2024 at 11:34:51 

     This program is part of the open-source Quantum ESPRESSO suite
     for quantum simulation of materials; please cite
         "P. Giannozzi et al., J. Phys.:Condens. Matter 21 395502 (2009);
         "P. Giannozzi et al., J. Phys.:Condens. Matter 29 465901 (2017);
         "P. Giannozzi et al., J. Chem. Phys. 152 154105 (2020);
          URL http://www.quantum-espresso.org", 
     in publications or presentations arising from this work. More details at
     http://www.quantum-espresso.org/quote

     Parallel version (MPI), running on     6 processors

     MPI processes distributed on     1 nodes
     3145 MiB available memory on the printing compute node when the environment starts

     Waiting for input...
     Reading input from standard input
     Message from routine read_cards :
     DEPRECATED: no units specified in CELL_PARAMETERS card

     Current dimensions of program PWSCF are:
     Max number of different atomic species (ntypx) = 10
     Max number of k-points (npk) =  40000
     Max angular momentum in pseudopotentials (lmaxx) =  4

     R & G space division:  proc/nbgrp/npool/nimage =       6
     Subspace diagonalization in iterative solution of the eigenvalue problem:
     a serial algorithm will be used


     Parallelization info
     --------------------
     sticks:   dense  smooth     PW     G-vecs:    dense   smooth      PW
     Min         277     277     83                10051    10051    1627
     Max         278     278     84                10054    10054    1632
     Sum        1663    1663    499                60313    60313    9767

     Using Slab Decomposition



     bravais-lattice index     =            0
     lattice parameter (alat)  =       4.6415  a.u.
     unit-cell volume          =     762.0804 (a.u.)^3
     number of atoms/cell      =            9
     number of atomic types    =            2
     number of electrons       =        48.00
     number of Kohn-Sham states=           25
     kinetic-energy cutoff     =      70.0000  Ry
     charge density cutoff     =     280.0000  Ry
     scf convergence threshold =      1.0E-10
     mixing beta               =       0.5000
     number of iterations used =            8  plain     mixing
     Exchange-correlation=  SLA  PW   PBX  PBC
                           (   1   4   3   4   0   0   0)

     celldm(1)=   4.641538  celldm(2)=   0.000000  celldm(3)=   0.000000
     celldm(4)=   0.000000  celldm(5)=   0.000000  celldm(6)=   0.000000

     crystal axes: (cart. coord. in units of alat)
               a(1) = (   1.000000  -1.732058   0.000000 )  
               a(2) = (   1.000000   1.732058   0.000000 )  
               a(3) = (   0.000000   0.000000   2.200000 )  

     reciprocal axes: (cart. coord. in units 2 pi/alat)
               b(1) = (  0.500000 -0.288674  0.000000 )  
               b(2) = (  0.500000  0.288674 -0.000000 )  
               b(3) = ( -0.000000  0.000000  0.454545 )  


     PseudoPot. # 1 for Si read from file:
     ./pseudo/Si.pbe-tm-gipaw.UPF
     MD5 check sum: 744ed8b2dc623e0d56f5dfff7afbe95f
     Pseudo is Norm-conserving, Zval =  4.0
     Generated by new atomic code, or converted to UPF format
     Using radial grid of 1141 points,  2 beta functions with: 
                l(1) =   0
                l(2) =   1

     PseudoPot. # 2 for O  read from file:
     ./pseudo/O.pbe-tm-new-gipaw.UPF
     MD5 check sum: cd70c9dcf1f7d755502eb127a1501eea
     Pseudo is Norm-conserving, Zval =  6.0
     Generated by new atomic code, or converted to UPF format
     Using radial grid of 1469 points,  1 beta functions with: 
                l(1) =   0

     atomic species   valence    mass     pseudopotential
        Si             4.00    28.08600     Si( 1.00)
        O              6.00    15.99900     O ( 1.00)

     No symmetry found


                                    s                        frac. trans.

      isym =  1     identity                                     

 cryst.   s( 1) = (     1          0          0      )
                  (     0          1          0      )
                  (     0          0          1      )

 cart.    s( 1) = (  1.0000000  0.0000000  0.0000000 )
                  (  0.0000000  1.0000000  0.0000000 )
                  (  0.0000000  0.0000000  1.0000000 )


   Cartesian axes

     site n.     atom                  positions (alat units)
         1           Si  tau(   1) = (   0.4701000  -0.8142405   0.7333333  )
         2           Si  tau(   2) = (   0.4701000   0.8142405   1.4666667  )
         3           Si  tau(   3) = (  -0.9402000   0.0000000   0.0000000  )
         4           O   tau(   4) = (   0.6813000  -0.2537465   0.4716800  )
         5           O   tau(   5) = (  -0.1209000   0.7168988   1.2050133  )
         6           O   tau(   6) = (  -0.5604000  -0.4631523   1.9383467  )
         7           O   tau(   7) = (   0.6813000   0.2537465  -0.4716800  )
         8           O   tau(   8) = (  -0.1209000  -0.7168988   0.9949867  )
         9           O   tau(   9) = (  -0.5604000   0.4631523   0.2616533  )

   Crystallographic axes

     site n.     atom                  positions (cryst. coord.)
         1           Si  tau(   1) = (  0.4701000  0.0000000  0.3333333  )
         2           Si  tau(   2) = (  0.0000000  0.4701000  0.6666667  )
         3           Si  tau(   3) = ( -0.4701000 -0.4701000  0.0000000  )
         4           O   tau(   4) = (  0.4139000  0.2674000  0.2144000  )
         5           O   tau(   5) = ( -0.2674000  0.1465000  0.5477333  )
         6           O   tau(   6) = ( -0.1465000 -0.4139000  0.8810667  )
         7           O   tau(   7) = (  0.2674000  0.4139000 -0.2144000  )
         8           O   tau(   8) = (  0.1465000 -0.2674000  0.4522667  )
         9           O   tau(   9) = ( -0.4139000 -0.1465000  0.1189333  )

     number of k points=     8
                       cart. coord. in units 2pi/alat
        k(    1) = (   0.0000000   0.0000000   0.0000000), wk =   0.2500000
        k(    2) = (   0.0000000   0.0000000  -0.2272727), wk =   0.2500000
        k(    3) = (  -0.2500000  -0.1443370   0.0000000), wk =   0.2500000
        k(    4) = (  -0.2500000  -0.1443370  -0.2272727), wk =   0.2500000
        k(    5) = (  -0.2500000   0.1443370   0.0000000), wk =   0.2500000
        k(    6) = (  -0.2500000   0.1443370  -0.2272727), wk =   0.2500000
        k(    7) = (  -0.5000000   0.0000000   0.0000000), wk =   0.2500000
        k(    8) = (  -0.5000000   0.0000000  -0.2272727), wk =   0.2500000

                       cryst. coord.
        k(    1) = (   0.0000000   0.0000000   0.0000000), wk =   0.2500000
        k(    2) = (   0.0000000   0.0000000  -0.5000000), wk =   0.2500000
        k(    3) = (   0.0000000  -0.5000000   0.0000000), wk =   0.2500000
        k(    4) = (   0.0000000  -0.5000000  -0.5000000), wk =   0.2500000
        k(    5) = (  -0.5000000   0.0000000   0.0000000), wk =   0.2500000
        k(    6) = (  -0.5000000   0.0000000  -0.5000000), wk =   0.2500000
        k(    7) = (  -0.5000000  -0.5000000   0.0000000), wk =   0.2500000
        k(    8) = (  -0.5000000  -0.5000000  -0.5000000), wk =   0.2500000

     Dense  grid:    60313 G-vectors     FFT dimensions: (  50,  50,  60)

     Dynamical RAM for                 wfc:       0.48 MB

     Dynamical RAM for     wfc (w. buffer):       4.31 MB

     Dynamical RAM for           str. fact:       0.31 MB

     Dynamical RAM for           local pot:       0.00 MB

     Dynamical RAM for          nlocal pot:       0.34 MB

     Dynamical RAM for                qrad:       0.23 MB

     Dynamical RAM for          rho,v,vnew:       1.03 MB

     Dynamical RAM for               rhoin:       0.34 MB

     Dynamical RAM for            rho*nmix:       2.45 MB

     Dynamical RAM for           G-vectors:       0.65 MB

     Dynamical RAM for          h,s,v(r/c):       0.11 MB

     Dynamical RAM for          <psi|beta>:       0.01 MB

     Dynamical RAM for                 psi:       0.96 MB

     Dynamical RAM for                hpsi:       0.96 MB

     Dynamical RAM for      wfcinit/wfcrot:       3.00 MB

     Estimated static dynamical RAM per process >       8.64 MB

     Estimated max dynamical RAM per process >      14.09 MB

     Estimated total dynamical RAM >      84.57 MB

     Initial potential from superposition of free atoms

     starting charge      46.4147, renormalised to      48.0000
     Starting wfcs are   75 randomized atomic wfcs

     total cpu time spent up to now is        1.0 secs

     Self-consistent Calculation

     iteration #  1     ecut=    70.00 Ry     beta= 0.50
     Davidson diagonalization with overlap

---- Real-time Memory Report at c_bands before calling an iterative solver
            45 MiB given to the printing process from OS
             0 MiB allocation reported by mallinfo(arena+hblkhd)
          3042 MiB available memory on the node where the printing process lives
------------------
     ethr =  1.00E-04,  avg # of iterations =  5.9

     total cpu time spent up to now is        2.1 secs

     total energy              =    -216.26249011 Ry
     estimated scf accuracy    <       1.02978474 Ry

     iteration #  2     ecut=    70.00 Ry     beta= 0.50
     Davidson diagonalization with overlap

---- Real-time Memory Report at c_bands before calling an iterative solver
            45 MiB given to the printing process from OS
             0 MiB allocation reported by mallinfo(arena+hblkhd)
          3036 MiB available memory on the node where the printing process lives
------------------
     ethr =  2.15E-03,  avg # of iterations =  2.0

     total cpu time spent up to now is        2.8 secs

     total energy              =    -216.51898505 Ry
     estimated scf accuracy    <       0.08119963 Ry

     iteration #  3     ecut=    70.00 Ry     beta= 0.50
     Davidson diagonalization with overlap

---- Real-time Memory Report at c_bands before calling an iterative solver
            45 MiB given to the printing process from OS
             0 MiB allocation reported by mallinfo(arena+hblkhd)
          3022 MiB available memory on the node where the printing process lives
------------------
     ethr =  1.69E-04,  avg # of iterations =  1.0

     total cpu time spent up to now is        3.2 secs

     total energy              =    -216.52626207 Ry
     estimated scf accuracy    <       0.01358553 Ry

     iteration #  4     ecut=    70.00 Ry     beta= 0.50
     Davidson diagonalization with overlap

---- Real-time Memory Report at c_bands before calling an iterative solver
            45 MiB given to the printing process from OS
             0 MiB allocation reported by mallinfo(arena+hblkhd)
          3022 MiB available memory on the node where the printing process lives
------------------
     ethr =  2.83E-05,  avg # of iterations =  2.8

     total cpu time spent up to now is        3.9 secs

     total energy              =    -216.52804702 Ry
     estimated scf accuracy    <       0.00513009 Ry

     iteration #  5     ecut=    70.00 Ry     beta= 0.50
     Davidson diagonalization with overlap

---- Real-time Memory Report at c_bands before calling an iterative solver
            45 MiB given to the printing process from OS
             0 MiB allocation reported by mallinfo(arena+hblkhd)
          3020 MiB available memory on the node where the printing process lives
------------------
     ethr =  1.07E-05,  avg # of iterations =  3.5

     total cpu time spent up to now is        4.5 secs

     total energy              =    -216.52839992 Ry
     estimated scf accuracy    <       0.00038231 Ry

     iteration #  6     ecut=    70.00 Ry     beta= 0.50
     Davidson diagonalization with overlap

---- Real-time Memory Report at c_bands before calling an iterative solver
            46 MiB given to the printing process from OS
             0 MiB allocation reported by mallinfo(arena+hblkhd)
          3018 MiB available memory on the node where the printing process lives
------------------
     ethr =  7.96E-07,  avg # of iterations =  2.8

     total cpu time spent up to now is        5.2 secs

     total energy              =    -216.52849663 Ry
     estimated scf accuracy    <       0.00000199 Ry

     iteration #  7     ecut=    70.00 Ry     beta= 0.50
     Davidson diagonalization with overlap

---- Real-time Memory Report at c_bands before calling an iterative solver
            46 MiB given to the printing process from OS
             0 MiB allocation reported by mallinfo(arena+hblkhd)
          3017 MiB available memory on the node where the printing process lives
------------------
     ethr =  4.14E-09,  avg # of iterations =  3.4

     total cpu time spent up to now is        6.0 secs

     total energy              =    -216.52849618 Ry
     estimated scf accuracy    <       0.00001187 Ry

     iteration #  8     ecut=    70.00 Ry     beta= 0.50
     Davidson diagonalization with overlap

---- Real-time Memory Report at c_bands before calling an iterative solver
            46 MiB given to the printing process from OS
             0 MiB allocation reported by mallinfo(arena+hblkhd)
          3013 MiB available memory on the node where the printing process lives
------------------
     ethr =  4.14E-09,  avg # of iterations =  3.0

     total cpu time spent up to now is        6.8 secs

     total energy              =    -216.52849799 Ry
     estimated scf accuracy    <       0.00000013 Ry

     iteration #  9     ecut=    70.00 Ry     beta= 0.50
     Davidson diagonalization with overlap

---- Real-time Memory Report at c_bands before calling an iterative solver
            46 MiB given to the printing process from OS
             0 MiB allocation reported by mallinfo(arena+hblkhd)
          3012 MiB available memory on the node where the printing process lives
------------------
     ethr =  2.64E-10,  avg # of iterations =  3.0

     total cpu time spent up to now is        7.5 secs

     total energy              =    -216.52849805 Ry
     estimated scf accuracy    <       0.00000010 Ry

     iteration # 10     ecut=    70.00 Ry     beta= 0.50
     Davidson diagonalization with overlap

---- Real-time Memory Report at c_bands before calling an iterative solver
            47 MiB given to the printing process from OS
             0 MiB allocation reported by mallinfo(arena+hblkhd)
          3010 MiB available memory on the node where the printing process lives
------------------
     ethr =  2.03E-10,  avg # of iterations =  2.0

     total cpu time spent up to now is        8.2 secs

     total energy              =    -216.52849807 Ry
     estimated scf accuracy    <          4.9E-09 Ry

     iteration # 11     ecut=    70.00 Ry     beta= 0.50
     Davidson diagonalization with overlap

---- Real-time Memory Report at c_bands before calling an iterative solver
            47 MiB given to the printing process from OS
             0 MiB allocation reported by mallinfo(arena+hblkhd)
          3010 MiB available memory on the node where the printing process lives
------------------
     ethr =  1.02E-11,  avg # of iterations =  1.1

     total cpu time spent up to now is        8.7 secs

     total energy              =    -216.52849807 Ry
     estimated scf accuracy    <          5.7E-10 Ry

     iteration # 12     ecut=    70.00 Ry     beta= 0.50
     Davidson diagonalization with overlap

---- Real-time Memory Report at c_bands before calling an iterative solver
            47 MiB given to the printing process from OS
             0 MiB allocation reported by mallinfo(arena+hblkhd)
          3006 MiB available memory on the node where the printing process lives
------------------
     ethr =  1.18E-12,  avg # of iterations =  2.0

     total cpu time spent up to now is        9.4 secs

     End of self-consistent calculation

          k = 0.0000 0.0000 0.0000 (  7647 PWs)   bands (ev):

   -16.8097 -15.2564 -15.2564 -14.6041 -14.5656 -14.5656  -5.6579  -5.6579
    -2.8563  -2.8387  -2.6681  -2.6681  -0.3506  -0.3506  -0.1118   0.1431
     1.0937   1.0937   1.1173   1.5920   1.5920   1.9093   2.2756   2.2756
     8.6574

     occupation numbers 
     1.0000   1.0000   1.0000   1.0000   1.0000   1.0000   1.0000   1.0000
     1.0000   1.0000   1.0000   1.0000   1.0000   1.0000   1.0000   1.0000
     1.0000   1.0000   1.0000   1.0000   1.0000   1.0000   1.0000   1.0000
     0.0000

          k = 0.0000 0.0000-0.2273 (  7516 PWs)   bands (ev):

   -16.3365 -16.3365 -14.6080 -14.5943 -14.5943 -14.5411  -6.7552  -3.6797
    -3.6797  -3.0349  -3.0349  -2.0878  -0.1240  -0.1240  -0.0414   0.5805
     0.5805   0.7596   0.7596   1.0580   1.3794   2.3811   2.3811   2.5062
    10.6003

     occupation numbers 
     1.0000   1.0000   1.0000   1.0000   1.0000   1.0000   1.0000   1.0000
     1.0000   1.0000   1.0000   1.0000   1.0000   1.0000   1.0000   1.0000
     1.0000   1.0000   1.0000   1.0000   1.0000   1.0000   1.0000   1.0000
     0.0000

          k =-0.2500-0.1443 0.0000 (  7498 PWs)   bands (ev):

   -16.3132 -15.8294 -15.2046 -14.6625 -14.6236 -14.5994  -5.8028  -4.7966
    -3.3066  -2.8656  -2.8435  -2.0478  -0.4857  -0.3198  -0.0899   0.2967
     0.4975   0.8413   0.9189   1.4876   1.5561   1.8093   2.3254   2.5580
    10.9168

     occupation numbers 
     1.0000   1.0000   1.0000   1.0000   1.0000   1.0000   1.0000   1.0000
     1.0000   1.0000   1.0000   1.0000   1.0000   1.0000   1.0000   1.0000
     1.0000   1.0000   1.0000   1.0000   1.0000   1.0000   1.0000   1.0000
     0.0000

          k =-0.2500-0.1443-0.2273 (  7552 PWs)   bands (ev):

   -16.2430 -15.7952 -15.3381 -14.6876 -14.6095 -14.5880  -5.6519  -4.6809
    -3.8161  -2.7495  -2.4808  -2.3683  -0.6169  -0.5968   0.1549   0.4786
     0.4968   1.0353   1.3210   1.4430   1.7071   1.7557   1.9912   2.4011
    11.5973

     occupation numbers 
     1.0000   1.0000   1.0000   1.0000   1.0000   1.0000   1.0000   1.0000
     1.0000   1.0000   1.0000   1.0000   1.0000   1.0000   1.0000   1.0000
     1.0000   1.0000   1.0000   1.0000   1.0000   1.0000   1.0000   1.0000
     0.0000

          k =-0.2500 0.1443 0.0000 (  7498 PWs)   bands (ev):

   -16.3132 -15.8294 -15.2046 -14.6625 -14.6236 -14.5994  -5.8028  -4.7966
    -3.3066  -2.8656  -2.8435  -2.0478  -0.4857  -0.3198  -0.0899   0.2967
     0.4975   0.8413   0.9189   1.4876   1.5561   1.8093   2.3254   2.5580
    10.9168

     occupation numbers 
     1.0000   1.0000   1.0000   1.0000   1.0000   1.0000   1.0000   1.0000
     1.0000   1.0000   1.0000   1.0000   1.0000   1.0000   1.0000   1.0000
     1.0000   1.0000   1.0000   1.0000   1.0000   1.0000   1.0000   1.0000
     0.0000

          k =-0.2500 0.1443-0.2273 (  7552 PWs)   bands (ev):

   -16.2430 -15.7952 -15.3381 -14.6876 -14.6095 -14.5880  -5.6519  -4.6809
    -3.8161  -2.7495  -2.4808  -2.3683  -0.6169  -0.5968   0.1549   0.4786
     0.4968   1.0353   1.3210   1.4430   1.7071   1.7557   1.9912   2.4011
    11.5973

     occupation numbers 
     1.0000   1.0000   1.0000   1.0000   1.0000   1.0000   1.0000   1.0000
     1.0000   1.0000   1.0000   1.0000   1.0000   1.0000   1.0000   1.0000
     1.0000   1.0000   1.0000   1.0000   1.0000   1.0000   1.0000   1.0000
     0.0000

          k =-0.5000 0.0000 0.0000 (  7498 PWs)   bands (ev):

   -16.3133 -15.8294 -15.2046 -14.6625 -14.6236 -14.5994  -5.8028  -4.7966
    -3.3066  -2.8656  -2.8435  -2.0478  -0.4858  -0.3198  -0.0899   0.2967
     0.4975   0.8413   0.9189   1.4876   1.5561   1.8093   2.3254   2.5580
    10.9168

     occupation numbers 
     1.0000   1.0000   1.0000   1.0000   1.0000   1.0000   1.0000   1.0000
     1.0000   1.0000   1.0000   1.0000   1.0000   1.0000   1.0000   1.0000
     1.0000   1.0000   1.0000   1.0000   1.0000   1.0000   1.0000   1.0000
     0.0000

          k =-0.5000 0.0000-0.2273 (  7552 PWs)   bands (ev):

   -16.2430 -15.7952 -15.3381 -14.6876 -14.6095 -14.5880  -5.6519  -4.6809
    -3.8160  -2.7495  -2.4808  -2.3683  -0.6169  -0.5968   0.1550   0.4786
     0.4968   1.0353   1.3210   1.4430   1.7071   1.7557   1.9912   2.4011
    11.5973

     occupation numbers 
     1.0000   1.0000   1.0000   1.0000   1.0000   1.0000   1.0000   1.0000
     1.0000   1.0000   1.0000   1.0000   1.0000   1.0000   1.0000   1.0000
     1.0000   1.0000   1.0000   1.0000   1.0000   1.0000   1.0000   1.0000
     0.0000

     highest occupied, lowest unoccupied level (ev):     2.5580    8.6574

!    total energy              =    -216.52849807 Ry
     estimated scf accuracy    <          8.6E-12 Ry

     The total energy is the sum of the following terms:
     one-electron contribution =    -104.60625669 Ry
     hartree contribution      =      77.89123015 Ry
     xc contribution           =     -50.85150713 Ry
     ewald contribution        =    -138.96196441 Ry

     convergence has been achieved in  12 iterations

     Writing all to output data dir ./scratch/quartz.save/

     init_run     :      0.82s CPU      0.86s WALL (       1 calls)
     electrons    :      7.94s CPU      8.40s WALL (       1 calls)

     Called by init_run:
     wfcinit      :      0.52s CPU      0.55s WALL (       1 calls)
     wfcinit:atom :      0.01s CPU      0.01s WALL (       8 calls)
     wfcinit:wfcr :      0.48s CPU      0.51s WALL (       8 calls)
     potinit      :      0.17s CPU      0.17s WALL (       1 calls)
     hinit0       :      0.13s CPU      0.13s WALL (       1 calls)

     Called by electrons:
     c_bands      :      6.97s CPU      7.35s WALL (      12 calls)
     sum_band     :      0.79s CPU      0.84s WALL (      12 calls)
     v_of_rho     :      0.15s CPU      0.16s WALL (      13 calls)
     v_h          :      0.01s CPU      0.01s WALL (      13 calls)
     v_xc         :      0.14s CPU      0.15s WALL (      13 calls)
     mix_rho      :      0.04s CPU      0.04s WALL (      12 calls)

     Called by c_bands:
     init_us_2    :      0.04s CPU      0.05s WALL (     200 calls)
     init_us_2:cp :      0.04s CPU      0.04s WALL (     200 calls)
     cegterg      :      6.89s CPU      7.26s WALL (      96 calls)

     Called by sum_band:
     sum_band:wei :      0.00s CPU      0.00s WALL (      12 calls)
     sum_band:loo :      0.77s CPU      0.83s WALL (      12 calls)
     sum_band:buf :      0.01s CPU      0.01s WALL (      96 calls)
     sum_band:ini :      0.02s CPU      0.02s WALL (      96 calls)

     Called by *egterg:
     cdiaghg      :      0.30s CPU      0.31s WALL (     355 calls)
     cegterg:over :      0.71s CPU      0.73s WALL (     259 calls)
     cegterg:upda :      0.33s CPU      0.33s WALL (     259 calls)
     cegterg:last :      0.38s CPU      0.38s WALL (     223 calls)
     h_psi        :      5.23s CPU      5.59s WALL (     363 calls)
     g_psi        :      0.03s CPU      0.03s WALL (     259 calls)

     Called by h_psi:
     h_psi:calbec :      0.24s CPU      0.25s WALL (     363 calls)
     vloc_psi     :      4.76s CPU      5.10s WALL (     363 calls)
     add_vuspsi   :      0.19s CPU      0.19s WALL (     363 calls)

     General routines
     calbec       :      0.24s CPU      0.25s WALL (     363 calls)
     fft          :      0.07s CPU      0.07s WALL (     129 calls)
     ffts         :      0.01s CPU      0.01s WALL (      12 calls)
     fftw         :      5.11s CPU      5.47s WALL (   18044 calls)

     Parallel routines

     PWSCF        :      8.90s CPU      9.43s WALL


   This run was terminated on:  11:35: 1   4Nov2024            

=------------------------------------------------------------------------------=
   JOB DONE.
=------------------------------------------------------------------------------=
