
     Program PWSCF v.7.2 starts on 18May2024 at  0:44:48 

     This program is part of the open-source Quantum ESPRESSO suite
     for quantum simulation of materials; please cite
         "P. Giannozzi et al., J. Phys.:Condens. Matter 21 395502 (2009);
         "P. Giannozzi et al., J. Phys.:Condens. Matter 29 465901 (2017);
         "P. Giannozzi et al., J. Chem. Phys. 152 154105 (2020);
          URL http://www.quantum-espresso.org", 
     in publications or presentations arising from this work. More details at
     http://www.quantum-espresso.org/quote

     Parallel version (MPI & OpenMP), running on     720 processor cores
     Number of MPI processes:               360
     Threads/MPI process:                     2

     MPI processes distributed on    10 nodes
     186122 MiB available memory on the printing compute node when the environment starts
 
     Waiting for input...
     Reading input from standard input
Warning: card &CELL ignored
Warning: card / ignored

     Current dimensions of program PWSCF are:
     Max number of different atomic species (ntypx) = 10
     Max number of k-points (npk) =  40000
     Max angular momentum in pseudopotentials (lmaxx) =  4
     WARNING: atomic wfc #  3 for atom typeAl has zero norm
     WARNING: atomic wfc #  4 for atom typeAl has zero norm
     Found identity + (  0.5000  0.1000 -0.0000) symmetry
     This is a supercell, fractional translations are disabled
 
     K-points division:     npool     =       6
     R & G space division:  proc/nbgrp/npool/nimage =      60
     Subspace diagonalization in iterative solution of the eigenvalue problem:
     one sub-group per band group will be used
     ELPA distributed-memory algorithm (size of sub-group:  7*  7 procs)

 
     Parallelization info
     --------------------
     sticks:   dense  smooth     PW     G-vecs:    dense   smooth      PW
     Min         231     231     61                17134    17134    2345
     Max         232     232     62                17141    17141    2348
     Sum       13913   13913   3701              1028315  1028315  140797
 
     Using Slab Decomposition
 


     bravais-lattice index     =            0
     lattice parameter (alat)  =      22.3965  a.u.
     unit-cell volume          =   12999.3366 (a.u.)^3
     number of atoms/cell      =          200
     number of atomic types    =            2
     number of electrons       =       960.00
     number of Kohn-Sham states=          481
     kinetic-energy cutoff     =      70.0000  Ry
     charge density cutoff     =     280.0000  Ry
     scf convergence threshold =      1.0E-09
     mixing beta               =       0.5000
     number of iterations used =            8  plain     mixing
     Exchange-correlation=  SLA  PW   PBX  PBC
                           (   1   4   3   4   0   0   0)

     celldm(1)=  22.396522  celldm(2)=   0.000000  celldm(3)=   0.000000
     celldm(4)=   0.000000  celldm(5)=   0.000000  celldm(6)=   0.000000

     crystal axes: (cart. coord. in units of alat)
               a(1) = (   1.005459  -0.000000  -0.002309 )  
               a(2) = (  -0.000000   1.240128   0.000000 )  
               a(3) = (  -0.229673   0.000000   0.928528 )  

     reciprocal axes: (cart. coord. in units 2 pi/alat)
               b(1) = (  0.995136  0.000000  0.246149 )  
               b(2) = (  0.000000  0.806368 -0.000000 )  
               b(3) = (  0.002474 -0.000000  1.077585 )  


     PseudoPot. # 1 for Al read from file:
     ./pseudo/Al.pbe-tm-gipaw-dc.UPF
     MD5 check sum: efdf9c81b1c08458edd46fe92d869955
     Pseudo is Norm-conserving, Zval =  3.0
     Generated by new atomic code, or converted to UPF format
     Using radial grid of 1519 points,  2 beta functions with: 
                l(1) =   0
                l(2) =   1

     PseudoPot. # 2 for O  read from file:
     ./pseudo/O.pbe-tm-new-gipaw-dc.UPF
     MD5 check sum: cd70c9dcf1f7d755502eb127a1501eea
     Pseudo is Norm-conserving, Zval =  6.0
     Generated by new atomic code, or converted to UPF format
     Using radial grid of 1469 points,  1 beta functions with: 
                l(1) =   0

     atomic species   valence    mass     pseudopotential
        Al             3.00    26.98000     Al( 1.00)
        O              6.00    16.00000     O ( 1.00)

     No symmetry found



   Cartesian axes

     site n.     atom                  positions (alat units)
         1           Al  tau(   1) = (   0.6250642   0.0000609   0.1452670  )
         2           Al  tau(   2) = (   0.2654405   0.0000611   0.3166089  )
         3           Al  tau(   3) = (   0.1223347   0.1240737   0.1464210  )
         4           Al  tau(   4) = (   0.7681700   0.1240738   0.3154549  )
         5           Al  tau(   5) = (   0.8912685   0.0000620   0.0927951  )
         6           Al  tau(   6) = (  -0.0007634   0.0000622   0.3690838  )
         7           Al  tau(   7) = (   0.3885390   0.1240749   0.0939491  )
         8           Al  tau(   8) = (   0.5019661   0.1240750   0.3679298  )
         9           O   tau(   9) = (   0.1489903   0.0000634   0.0498716  )
        10           O   tau(  10) = (   0.7415153   0.0000636   0.4120055  )
        11           O   tau(  11) = (   0.6517197   0.1240763   0.0487175  )
        12           O   tau(  12) = (   0.2387859   0.1240765   0.4131595  )
        13           O   tau(  13) = (   0.4680738   0.0000632   0.1182378  )
        14           O   tau(  14) = (   0.4224324   0.0000633   0.3436458  )
        15           O   tau(  15) = (   0.9708033   0.1240759   0.1170835  )
        16           O   tau(  16) = (  -0.0802971   0.1240761   0.3448001  )
        17           O   tau(  17) = (   0.7813231   0.0000636   0.1988965  )
        18           O   tau(  18) = (   0.1091729   0.0000643   0.2629789  )
        19           O   tau(  19) = (   0.2785937   0.1240764   0.2000505  )
        20           O   tau(  20) = (   0.6119023   0.1240771   0.2618249  )
        21           Al  tau(  21) = (   0.6250641   0.2480865   0.1452670  )
        22           Al  tau(  22) = (   0.2654405   0.2480867   0.3166089  )
        23           Al  tau(  23) = (   0.1223347   0.3720993   0.1464210  )
        24           Al  tau(  24) = (   0.7681699   0.3720994   0.3154549  )
        25           Al  tau(  25) = (   0.8912685   0.2480876   0.0927951  )
        26           Al  tau(  26) = (  -0.0007634   0.2480878   0.3690838  )
        27           Al  tau(  27) = (   0.3885390   0.3721005   0.0939491  )
        28           Al  tau(  28) = (   0.5019660   0.3721006   0.3679298  )
        29           O   tau(  29) = (   0.1489903   0.2480890   0.0498716  )
        30           O   tau(  30) = (   0.7415153   0.2480892   0.4120055  )
        31           O   tau(  31) = (   0.6517197   0.3721019   0.0487175  )
        32           O   tau(  32) = (   0.2387858   0.3721021   0.4131595  )
        33           O   tau(  33) = (   0.4680738   0.2480888   0.1182378  )
        34           O   tau(  34) = (   0.4224324   0.2480889   0.3436458  )
        35           O   tau(  35) = (   0.9708033   0.3721015   0.1170836  )
        36           O   tau(  36) = (  -0.0802971   0.3721017   0.3448000  )
        37           O   tau(  37) = (   0.7813231   0.2480892   0.1988965  )
        38           O   tau(  38) = (   0.1091729   0.2480899   0.2629789  )
        39           O   tau(  39) = (   0.2785936   0.3721020   0.2000505  )
        40           O   tau(  40) = (   0.6119023   0.3721027   0.2618249  )
        41           Al  tau(  41) = (   0.6250641   0.4961121   0.1452670  )
        42           Al  tau(  42) = (   0.2654405   0.4961123   0.3166089  )
        43           Al  tau(  43) = (   0.1223347   0.6201249   0.1464210  )
        44           Al  tau(  44) = (   0.7681699   0.6201251   0.3154549  )
        45           Al  tau(  45) = (   0.8912685   0.4961132   0.0927951  )
        46           Al  tau(  46) = (  -0.0007634   0.4961134   0.3690839  )
        47           Al  tau(  47) = (   0.3885390   0.6201261   0.0939491  )
        48           Al  tau(  48) = (   0.5019660   0.6201262   0.3679298  )
        49           O   tau(  49) = (   0.1489902   0.4961147   0.0498716  )
        50           O   tau(  50) = (   0.7415153   0.4961148   0.4120055  )
        51           O   tau(  51) = (   0.6517197   0.6201275   0.0487175  )
        52           O   tau(  52) = (   0.2387858   0.6201277   0.4131595  )
        53           O   tau(  53) = (   0.4680737   0.4961144   0.1182378  )
        54           O   tau(  54) = (   0.4224324   0.4961145   0.3436458  )
        55           O   tau(  55) = (   0.9708033   0.6201271   0.1170836  )
        56           O   tau(  56) = (  -0.0802971   0.6201273   0.3448001  )
        57           O   tau(  57) = (   0.7813231   0.4961148   0.1988965  )
        58           O   tau(  58) = (   0.1091729   0.4961156   0.2629789  )
        59           O   tau(  59) = (   0.2785936   0.6201277   0.2000506  )
        60           O   tau(  60) = (   0.6119023   0.6201284   0.2618249  )
        61           Al  tau(  61) = (   0.6250641   0.7441378   0.1452670  )
        62           Al  tau(  62) = (   0.2654405   0.7441379   0.3166089  )
        63           Al  tau(  63) = (   0.1223347   0.8681506   0.1464210  )
        64           Al  tau(  64) = (   0.7681699   0.8681507   0.3154549  )
        65           Al  tau(  65) = (   0.8912685   0.7441388   0.0927951  )
        66           Al  tau(  66) = (  -0.0007634   0.7441391   0.3690839  )
        67           Al  tau(  67) = (   0.3885390   0.8681517   0.0939491  )
        68           Al  tau(  68) = (   0.5019660   0.8681519   0.3679298  )
        69           O   tau(  69) = (   0.1489902   0.7441403   0.0498716  )
        70           O   tau(  70) = (   0.7415153   0.7441405   0.4120055  )
        71           O   tau(  71) = (   0.6517197   0.8681531   0.0487176  )
        72           O   tau(  72) = (   0.2387858   0.8681533   0.4131595  )
        73           O   tau(  73) = (   0.4680737   0.7441400   0.1182378  )
        74           O   tau(  74) = (   0.4224324   0.7441401   0.3436458  )
        75           O   tau(  75) = (   0.9708032   0.8681527   0.1170836  )
        76           O   tau(  76) = (  -0.0802972   0.8681529   0.3448001  )
        77           O   tau(  77) = (   0.7813231   0.7441404   0.1988965  )
        78           O   tau(  78) = (   0.1091728   0.7441412   0.2629789  )
        79           O   tau(  79) = (   0.2785936   0.8681533   0.2000506  )
        80           O   tau(  80) = (   0.6119023   0.8681540   0.2618249  )
        81           Al  tau(  81) = (   0.6250641   0.9921634   0.1452670  )
        82           Al  tau(  82) = (   0.2654405   0.9921635   0.3166089  )
        83           Al  tau(  83) = (   0.1223347   1.1161762   0.1464210  )
        84           Al  tau(  84) = (   0.7681699   1.1161763   0.3154549  )
        85           Al  tau(  85) = (   0.8912684   0.9921644   0.0927951  )
        86           Al  tau(  86) = (  -0.0007635   0.9921647   0.3690839  )
        87           Al  tau(  87) = (   0.3885390   1.1161774   0.0939491  )
        88           Al  tau(  88) = (   0.5019660   1.1161775   0.3679299  )
        89           O   tau(  89) = (   0.1489902   0.9921659   0.0498716  )
        90           O   tau(  90) = (   0.7415152   0.9921661   0.4120055  )
        91           O   tau(  91) = (   0.6517196   1.1161787   0.0487176  )
        92           O   tau(  92) = (   0.2387858   1.1161789   0.4131595  )
        93           O   tau(  93) = (   0.4680737   0.9921656   0.1182378  )
        94           O   tau(  94) = (   0.4224324   0.9921657   0.3436458  )
        95           O   tau(  95) = (   0.9708032   1.1161783   0.1170836  )
        96           O   tau(  96) = (  -0.0802972   1.1161785   0.3448001  )
        97           O   tau(  97) = (   0.7813230   0.9921660   0.1988965  )
        98           O   tau(  98) = (   0.1091728   0.9921668   0.2629789  )
        99           O   tau(  99) = (   0.2785936   1.1161789   0.2000506  )
       100           O   tau( 100) = (   0.6119023   1.1161796   0.2618249  )
       101           Al  tau( 101) = (   0.5102166   0.0000610   0.6095328  )
       102           Al  tau( 102) = (   0.1505931   0.0000609   0.7808747  )
       103           Al  tau( 103) = (   0.0074871   0.1240738   0.6106868  )
       104           Al  tau( 104) = (   0.6533225   0.1240736   0.7797207  )
       105           Al  tau( 105) = (   0.7764214   0.0000621   0.5570608  )
       106           Al  tau( 106) = (  -0.1156103   0.0000619   0.8333496  )
       107           Al  tau( 107) = (   0.2736919   0.1240750   0.5582148  )
       108           Al  tau( 108) = (   0.3871191   0.1240748   0.8321956  )
       109           O   tau( 109) = (   0.0341491   0.0000636   0.5141379  )
       110           O   tau( 110) = (   0.6266743   0.0000634   0.8762719  )
       111           O   tau( 111) = (   0.5368785   0.1240764   0.5129839  )
       112           O   tau( 112) = (   0.1239448   0.1240763   0.8774259  )
       113           O   tau( 113) = (   0.3532268   0.0000633   0.5825044  )
       114           O   tau( 114) = (   0.3075856   0.0000630   0.8079125  )
       115           O   tau( 115) = (   0.8559563   0.1240760   0.5813502  )
       116           O   tau( 116) = (  -0.1951439   0.1240758   0.8090668  )
       117           O   tau( 117) = (   0.6664747   0.0000634   0.6631622  )
       118           O   tau( 118) = (  -0.0056755   0.0000643   0.7272445  )
       119           O   tau( 119) = (   0.1637452   0.1240763   0.6643162  )
       120           O   tau( 120) = (   0.4970540   0.1240770   0.7260905  )
       121           Al  tau( 121) = (   0.5102165   0.2480866   0.6095328  )
       122           Al  tau( 122) = (   0.1505930   0.2480865   0.7808747  )
       123           Al  tau( 123) = (   0.0074871   0.3720994   0.6106868  )
       124           Al  tau( 124) = (   0.6533225   0.3720992   0.7797207  )
       125           Al  tau( 125) = (   0.7764214   0.2480877   0.5570608  )
       126           Al  tau( 126) = (  -0.1156103   0.2480875   0.8333496  )
       127           Al  tau( 127) = (   0.2736919   0.3721006   0.5582148  )
       128           Al  tau( 128) = (   0.3871191   0.3721004   0.8321956  )
       129           O   tau( 129) = (   0.0341490   0.2480892   0.5141379  )
       130           O   tau( 130) = (   0.6266743   0.2480890   0.8762719  )
       131           O   tau( 131) = (   0.5368785   0.3721020   0.5129839  )
       132           O   tau( 132) = (   0.1239448   0.3721019   0.8774259  )
       133           O   tau( 133) = (   0.3532267   0.2480889   0.5825044  )
       134           O   tau( 134) = (   0.3075856   0.2480886   0.8079125  )
       135           O   tau( 135) = (   0.8559563   0.3721016   0.5813502  )
       136           O   tau( 136) = (  -0.1951440   0.3721014   0.8090668  )
       137           O   tau( 137) = (   0.6664746   0.2480890   0.6631622  )
       138           O   tau( 138) = (  -0.0056755   0.2480899   0.7272445  )
       139           O   tau( 139) = (   0.1637452   0.3721019   0.6643162  )
       140           O   tau( 140) = (   0.4970539   0.3721026   0.7260905  )
       141           Al  tau( 141) = (   0.5102165   0.4961122   0.6095328  )
       142           Al  tau( 142) = (   0.1505930   0.4961121   0.7808747  )
       143           Al  tau( 143) = (   0.0074871   0.6201250   0.6106868  )
       144           Al  tau( 144) = (   0.6533224   0.6201248   0.7797207  )
       145           Al  tau( 145) = (   0.7764214   0.4961133   0.5570608  )
       146           Al  tau( 146) = (  -0.1156103   0.4961132   0.8333496  )
       147           Al  tau( 147) = (   0.2736919   0.6201262   0.5582148  )
       148           Al  tau( 148) = (   0.3871191   0.6201260   0.8321956  )
       149           O   tau( 149) = (   0.0341490   0.4961148   0.5141379  )
       150           O   tau( 150) = (   0.6266743   0.4961146   0.8762719  )
       151           O   tau( 151) = (   0.5368785   0.6201276   0.5129839  )
       152           O   tau( 152) = (   0.1239448   0.6201275   0.8774259  )
       153           O   tau( 153) = (   0.3532267   0.4961145   0.5825044  )
       154           O   tau( 154) = (   0.3075856   0.4961142   0.8079125  )
       155           O   tau( 155) = (   0.8559562   0.6201272   0.5813502  )
       156           O   tau( 156) = (  -0.1951440   0.6201270   0.8090668  )
       157           O   tau( 157) = (   0.6664746   0.4961146   0.6631622  )
       158           O   tau( 158) = (  -0.0056755   0.4961155   0.7272445  )
       159           O   tau( 159) = (   0.1637452   0.6201275   0.6643162  )
       160           O   tau( 160) = (   0.4970539   0.6201283   0.7260905  )
       161           Al  tau( 161) = (   0.5102165   0.7441378   0.6095328  )
       162           Al  tau( 162) = (   0.1505930   0.7441377   0.7808747  )
       163           Al  tau( 163) = (   0.0074871   0.8681506   0.6106868  )
       164           Al  tau( 164) = (   0.6533224   0.8681505   0.7797207  )
       165           Al  tau( 165) = (   0.7764214   0.7441389   0.5570608  )
       166           Al  tau( 166) = (  -0.1156104   0.7441388   0.8333496  )
       167           Al  tau( 167) = (   0.2736919   0.8681518   0.5582148  )
       168           Al  tau( 168) = (   0.3871191   0.8681516   0.8321956  )
       169           O   tau( 169) = (   0.0341490   0.7441404   0.5141379  )
       170           O   tau( 170) = (   0.6266742   0.7441402   0.8762719  )
       171           O   tau( 171) = (   0.5368784   0.8681532   0.5129839  )
       172           O   tau( 172) = (   0.1239448   0.8681531   0.8774259  )
       173           O   tau( 173) = (   0.3532267   0.7441401   0.5825045  )
       174           O   tau( 174) = (   0.3075855   0.7441399   0.8079125  )
       175           O   tau( 175) = (   0.8559562   0.8681529   0.5813502  )
       176           O   tau( 176) = (  -0.1951440   0.8681526   0.8090668  )
       177           O   tau( 177) = (   0.6664746   0.7441403   0.6631622  )
       178           O   tau( 178) = (  -0.0056755   0.7441411   0.7272445  )
       179           O   tau( 179) = (   0.1637452   0.8681531   0.6643162  )
       180           O   tau( 180) = (   0.4970539   0.8681539   0.7260905  )
       181           Al  tau( 181) = (   0.5102165   0.9921634   0.6095328  )
       182           Al  tau( 182) = (   0.1505930   0.9921633   0.7808747  )
       183           Al  tau( 183) = (   0.0074871   1.1161763   0.6106868  )
       184           Al  tau( 184) = (   0.6533224   1.1161761   0.7797207  )
       185           Al  tau( 185) = (   0.7764213   0.9921646   0.5570608  )
       186           Al  tau( 186) = (  -0.1156104   0.9921644   0.8333496  )
       187           Al  tau( 187) = (   0.2736919   1.1161774   0.5582148  )
       188           Al  tau( 188) = (   0.3871191   1.1161772   0.8321956  )
       189           O   tau( 189) = (   0.0341490   0.9921660   0.5141380  )
       190           O   tau( 190) = (   0.6266742   0.9921658   0.8762719  )
       191           O   tau( 191) = (   0.5368784   1.1161788   0.5129839  )
       192           O   tau( 192) = (   0.1239448   1.1161787   0.8774259  )
       193           O   tau( 193) = (   0.3532267   0.9921657   0.5825045  )
       194           O   tau( 194) = (   0.3075855   0.9921655   0.8079125  )
       195           O   tau( 195) = (   0.8559562   1.1161785   0.5813502  )
       196           O   tau( 196) = (  -0.1951440   1.1161783   0.8090668  )
       197           O   tau( 197) = (   0.6664746   0.9921659   0.6631622  )
       198           O   tau( 198) = (  -0.0056755   0.9921667   0.7272445  )
       199           O   tau( 199) = (   0.1637451   1.1161787   0.6643162  )
       200           O   tau( 200) = (   0.4970539   1.1161795   0.7260905  )

     number of k points=     8
                       cart. coord. in units 2pi/alat
        k(    1) = (   0.0000000   0.0000000   0.0000000), wk =   0.2500000
        k(    2) = (  -0.0012371   0.0000000  -0.5387924), wk =   0.2500000
        k(    3) = (  -0.0000000  -0.4031842   0.0000000), wk =   0.2500000
        k(    4) = (  -0.0012371  -0.4031841  -0.5387924), wk =   0.2500000
        k(    5) = (  -0.4975679  -0.0000000  -0.1230743), wk =   0.2500000
        k(    6) = (  -0.4988050  -0.0000000  -0.6618668), wk =   0.2500000
        k(    7) = (  -0.4975679  -0.4031842  -0.1230743), wk =   0.2500000
        k(    8) = (  -0.4988050  -0.4031842  -0.6618668), wk =   0.2500000

     Dense  grid:  1028315 G-vectors     FFT dimensions: ( 120, 150, 120)

     Estimated max dynamical RAM per process >     246.33 MB

     Estimated total dynamical RAM >      85.37 GB

     Initial potential from superposition of free atoms

     starting charge     919.9812, renormalised to     960.0000
     Starting wfcs are 1680 randomized atomic wfcs

     total cpu time spent up to now is       15.4 secs

     Self-consistent Calculation

     iteration #  1     ecut=    70.00 Ry     beta= 0.50
     Davidson diagonalization with overlap
     ethr =  1.00E-02,  avg # of iterations =  2.0

     total cpu time spent up to now is       25.9 secs

     total energy              =   -4192.45893285 Ry
     estimated scf accuracy    <      14.75825995 Ry

     iteration #  2     ecut=    70.00 Ry     beta= 0.50
     Davidson diagonalization with overlap
     ethr =  1.54E-03,  avg # of iterations =  2.0

     total cpu time spent up to now is       37.8 secs

     total energy              =   -4196.43402973 Ry
     estimated scf accuracy    <       1.78665648 Ry

     iteration #  3     ecut=    70.00 Ry     beta= 0.50
     Davidson diagonalization with overlap
     ethr =  1.86E-04,  avg # of iterations =  2.0

     total cpu time spent up to now is       46.7 secs

     total energy              =   -4196.62288265 Ry
     estimated scf accuracy    <       0.27638624 Ry

     iteration #  4     ecut=    70.00 Ry     beta= 0.50
     Davidson diagonalization with overlap
     ethr =  2.88E-05,  avg # of iterations =  2.0

     total cpu time spent up to now is       58.0 secs

     total energy              =   -4196.65802824 Ry
     estimated scf accuracy    <       0.07349571 Ry

     iteration #  5     ecut=    70.00 Ry     beta= 0.50
     Davidson diagonalization with overlap
     ethr =  7.66E-06,  avg # of iterations =  2.0

     total cpu time spent up to now is       67.1 secs

     total energy              =   -4196.66048516 Ry
     estimated scf accuracy    <       0.00852797 Ry

     iteration #  6     ecut=    70.00 Ry     beta= 0.50
     Davidson diagonalization with overlap
     ethr =  8.88E-07,  avg # of iterations =  3.0

     total cpu time spent up to now is       79.6 secs

     total energy              =   -4196.66330331 Ry
     estimated scf accuracy    <       0.00028930 Ry

     iteration #  7     ecut=    70.00 Ry     beta= 0.50
     Davidson diagonalization with overlap
     ethr =  3.01E-08,  avg # of iterations =  2.0

     total cpu time spent up to now is       88.2 secs

     total energy              =   -4196.66328110 Ry
     estimated scf accuracy    <       0.00008484 Ry

     iteration #  8     ecut=    70.00 Ry     beta= 0.50
     Davidson diagonalization with overlap
     ethr =  8.84E-09,  avg # of iterations =  2.0

     total cpu time spent up to now is      100.1 secs

     total energy              =   -4196.66330310 Ry
     estimated scf accuracy    <       0.00000210 Ry

     iteration #  9     ecut=    70.00 Ry     beta= 0.50
     Davidson diagonalization with overlap
     ethr =  2.18E-10,  avg # of iterations =  2.2

     total cpu time spent up to now is      112.3 secs

     total energy              =   -4196.66330372 Ry
     estimated scf accuracy    <       0.00000068 Ry

     iteration # 10     ecut=    70.00 Ry     beta= 0.50
     Davidson diagonalization with overlap
     ethr =  7.12E-11,  avg # of iterations =  2.0

     total cpu time spent up to now is      123.0 secs

     total energy              =   -4196.66330381 Ry
     estimated scf accuracy    <       0.00000002 Ry

     iteration # 11     ecut=    70.00 Ry     beta= 0.50
     Davidson diagonalization with overlap
     ethr =  2.10E-12,  avg # of iterations =  3.0

     total cpu time spent up to now is      136.3 secs

     total energy              =   -4196.66330382 Ry
     estimated scf accuracy    <          7.9E-09 Ry

     iteration # 12     ecut=    70.00 Ry     beta= 0.50
     Davidson diagonalization with overlap
     ethr =  8.22E-13,  avg # of iterations =  2.2

     total cpu time spent up to now is      147.3 secs

     End of self-consistent calculation

          k = 0.0000 0.0000 0.0000 (128539 PWs)   bands (ev):

   -12.3312 -12.0161 -12.0099 -12.0099 -11.9063 -11.8285 -11.7424 -11.7243
   -11.7243 -11.6347 -11.6347 -11.5553 -11.5553 -11.4816 -11.4816 -11.4506
   -11.3755 -11.2141 -11.2141 -11.1865 -11.1865 -11.1846 -11.1540 -11.1540
   -11.0220 -11.0220 -11.0152 -11.0152 -10.9689 -10.9689 -10.9286 -10.9286
   -10.9075 -10.9075 -10.8208 -10.7772 -10.7306 -10.7185 -10.6947 -10.6947
   -10.6937 -10.6937 -10.6583 -10.6404 -10.6404 -10.6011 -10.6011 -10.5901
   -10.5743 -10.5743 -10.5674 -10.5674 -10.5631 -10.5631 -10.5543 -10.5543
   -10.5240 -10.5240 -10.5169 -10.5169 -10.5063 -10.4675 -10.4675 -10.4669
   -10.4669 -10.4637 -10.4637 -10.4391 -10.4391 -10.4335 -10.4335 -10.3675
   -10.3645 -10.3645 -10.2948 -10.2946 -10.2946 -10.2926 -10.2926 -10.2612
   -10.2612 -10.1913 -10.1530 -10.1530 -10.1195 -10.1195 -10.1051 -10.0995
   -10.0931 -10.0847 -10.0847 -10.0630 -10.0630 -10.0608 -10.0150 -10.0150
   -10.0082 -10.0082 -10.0018 -10.0018 -10.0004 -10.0004  -9.9473  -9.9473
    -9.9146  -9.9123  -9.9123  -9.9067  -9.9067  -9.8884  -9.8884  -9.8880
    -9.8880  -9.8699  -9.8699  -9.8514  -9.8514  -9.7820  -9.7687  -9.7687
     0.0063   0.0253   0.2945   0.2945   0.3257   0.3257   0.3356   0.3356
     0.4029   0.4029   0.4799   0.5705   0.5705   0.6750   0.6750   0.6755
     0.7145   0.7145   0.7260   0.7260   0.7550   0.7550   0.8104   0.8104
     0.8305   0.8382   0.8409   0.8409   0.8879   0.8879   0.9268   0.9268
     0.9279   0.9279   0.9679   0.9754   0.9754   0.9970   0.9970   1.1451
     1.1451   1.2390   1.2476   1.2476   1.2653   1.2653   1.2881   1.2881
     1.3110   1.3110   1.3272   1.3272   1.3323   1.3323   1.3827   1.3827
     1.4175   1.4175   1.4910   1.5284   1.5284   1.5666   1.5666   1.5780
     1.6115   1.6115   1.6240   1.6240   1.6281   1.6398   1.6753   1.6753
     1.7033   1.7033   1.8041   1.8041   1.8512   1.9331   1.9331   2.0003
     2.0003   2.0512   2.0512   2.0984   2.0984   2.1024   2.1024   2.1323
     2.1959   2.2583   2.2678   2.2678   2.3084   2.3084   2.3798   2.3798
     2.3989   2.3989   2.4014   2.4014   2.4107   2.4107   2.4304   2.4304
     2.4550   2.4550   2.4896   2.4896   2.5034   2.5034   2.5300   2.5300
     2.5851   2.5851   2.5951   2.5951   2.6395   2.6395   2.6763   2.8182
     2.8182   2.8435   2.9091   2.9091   2.9858   2.9858   3.0536   3.1097
     3.1097   3.1196   3.1196   3.1317   3.1463   3.1463   3.1726   3.1726
     3.1829   3.1829   3.1992   3.1992   3.2103   3.2103   3.2123   3.2123
     3.3090   3.3090   3.3517   3.3517   3.3897   3.3897   3.4185   3.4185
     3.4446   3.4967   3.4967   3.5039   3.5223   3.5529   3.5529   3.5582
     3.5582   3.6577   3.6904   3.7012   3.7012   3.7288   3.7303   3.7303
     3.7374   3.7374   3.7664   3.7664   3.7735   3.7770   3.7770   3.7833
     3.7833   3.8172   3.8172   3.8525   3.8526   3.8526   3.8543   3.8986
     3.9086   3.9086   3.9159   3.9405   3.9405   3.9496   3.9500   3.9808
     3.9808   4.0264   4.0322   4.0322   4.0462   4.0580   4.0580   4.1010
     4.1010   4.1031   4.1031   4.1164   4.1164   4.1502   4.1853   4.1853
     4.2046   4.2100   4.2100   4.2162   4.2162   4.2188   4.2412   4.2412
     4.2948   4.2948   4.3181   4.3181   4.3393   4.3393   4.3469   4.3571
     4.3665   4.4383   4.4383   4.4573   4.4573   4.4892   4.5011   4.5011
     4.5664   4.6107   4.6107   4.6349   4.6349   4.6412   4.6412   4.6414
     4.6414   4.6464   4.6471   4.6471   4.7000   4.7000   4.7184   4.7184
     4.7310   4.7310   4.7912   4.7912   4.7923   4.7946   4.8223   4.8223
     4.8405   4.8405   4.8462   4.8486   4.8550   4.9357   4.9357   4.9382
     4.9382   4.9570   4.9570   4.9830   4.9830   4.9837   4.9837   5.0069
     5.0426   5.0426   5.0607   5.0623   5.0623   5.0972   5.1264   5.1264
     5.1334   5.1569   5.1569   5.1731   5.1731   5.1800   5.1800   5.1820
     5.1820   5.2111   5.2338   5.2802   5.2906   5.2906   5.3484   5.3685
     5.3999   5.3999   5.4320   5.4397   5.4491   5.4491   5.4715   5.4715
     5.4916   5.5186   5.5186   5.5495   5.5495   5.5614   5.5614   5.6104
     5.6104   5.6262   5.6529   5.6529   5.6733   5.6761   5.6761   5.6772
     5.6772   5.7226   5.7226   5.7851   5.7851   5.9122   5.9144   5.9144
     5.9559   5.9559   5.9564   5.9564   5.9574   5.9574   6.0097   6.0097
     6.0402   6.0637   6.0699   6.1179   6.1179   6.1292   6.1292   6.1495
     6.1814   6.1814   6.2078   6.2486   6.2918   6.2918   6.3073   6.3073
     6.3148   6.3148   6.3530   6.3530   6.3779   6.5387   6.5387   6.6569
    11.2099

          k =-0.0012 0.0000-0.5388 (128492 PWs)   bands (ev):

   -12.2098 -12.2098 -11.8984 -11.8984 -11.8984 -11.8984 -11.8879 -11.8879
   -11.6127 -11.6127 -11.6127 -11.6127 -11.5769 -11.5769 -11.3353 -11.3353
   -11.3353 -11.3353 -11.1358 -11.1358 -11.1348 -11.1348 -11.1348 -11.1348
   -10.9812 -10.9812 -10.9812 -10.9812 -10.9694 -10.9693 -10.9195 -10.9195
   -10.9195 -10.9195 -10.8178 -10.8178 -10.8178 -10.8178 -10.7732 -10.7732
   -10.7732 -10.7732 -10.7513 -10.7513 -10.6221 -10.6221 -10.6221 -10.6221
   -10.5646 -10.5646 -10.5646 -10.5646 -10.5199 -10.5199 -10.5046 -10.5046
   -10.5046 -10.5046 -10.4574 -10.4574 -10.4574 -10.4574 -10.4549 -10.4548
   -10.4223 -10.4223 -10.4223 -10.4223 -10.3913 -10.3913 -10.3913 -10.3913
   -10.3694 -10.3694 -10.3693 -10.3693 -10.2952 -10.2952 -10.2952 -10.2952
   -10.2407 -10.2407 -10.1532 -10.1532 -10.1407 -10.1407 -10.1407 -10.1407
   -10.1272 -10.1272 -10.1272 -10.1272 -10.0307 -10.0307  -9.9895  -9.9895
    -9.9895  -9.9895  -9.9614  -9.9614  -9.9614  -9.9614  -9.9562  -9.9562
    -9.9562  -9.9562  -9.8719  -9.8719  -9.8719  -9.8719  -9.8658  -9.8658
    -9.8658  -9.8658  -9.8426  -9.8426  -9.8351  -9.8351  -9.8351  -9.8351
     0.2302   0.2303   0.4038   0.4038   0.4398   0.4398   0.4398   0.4398
     0.5065   0.5065   0.5065   0.5065   0.5652   0.5652   0.5652   0.5652
     0.6595   0.6595   0.6595   0.6595   0.7165   0.7165   0.7225   0.7225
     0.7225   0.7225   0.9226   0.9226   0.9227   0.9227   0.9250   0.9250
     0.9250   0.9250   0.9583   0.9583   1.0120   1.0120   1.0121   1.0121
     1.0649   1.0649   1.0649   1.0649   1.1133   1.1133   1.1133   1.1133
     1.2734   1.2734   1.2734   1.2734   1.3035   1.3035   1.3035   1.3035
     1.5458   1.5458   1.5458   1.5458   1.5617   1.5617   1.5807   1.5807
     1.5807   1.5807   1.7086   1.7086   1.7086   1.7086   1.7233   1.7234
     1.7518   1.7518   1.7518   1.7518   1.8310   1.8310   1.8310   1.8310
     2.0123   2.0123   2.1838   2.1838   2.1838   2.1838   2.2432   2.2432
     2.2432   2.2432   2.3286   2.3286   2.3286   2.3286   2.4010   2.4010
     2.4010   2.4010   2.4128   2.4128   2.4135   2.4135   2.4136   2.4136
     2.4269   2.4269   2.4269   2.4269   2.5178   2.5178   2.5179   2.5179
     2.6365   2.6365   2.6366   2.6366   2.8820   2.8821   2.8851   2.8851
     2.8851   2.8851   2.9213   2.9213   2.9213   2.9213   2.9342   2.9343
     2.9910   2.9910   2.9910   2.9910   2.9985   2.9985   2.9985   2.9985
     3.2198   3.2198   3.2198   3.2198   3.2761   3.2761   3.2762   3.2762
     3.3052   3.3052   3.3052   3.3052   3.3160   3.3161   3.5368   3.5368
     3.5497   3.5497   3.5498   3.5498   3.5587   3.5587   3.5588   3.5588
     3.5679   3.5679   3.5680   3.5680   3.7084   3.7084   3.7085   3.7085
     3.7130   3.7130   3.7418   3.7418   3.7418   3.7418   3.7869   3.7869
     3.7869   3.7869   3.8327   3.8328   3.8944   3.8944   3.8944   3.8944
     3.9320   3.9321   3.9428   3.9429   3.9820   3.9820   3.9820   3.9820
     4.0806   4.0806   4.0822   4.0822   4.1346   4.1346   4.1346   4.1346
     4.2255   4.2255   4.2256   4.2256   4.2573   4.2573   4.2987   4.2987
     4.2987   4.2987   4.3470   4.3470   4.3470   4.3470   4.3728   4.3728
     4.3728   4.3728   4.4111   4.4112   4.4142   4.4142   4.4299   4.4299
     4.4300   4.4300   4.4693   4.4693   4.4694   4.4694   4.4745   4.4745
     4.4745   4.4745   4.5165   4.5165   4.5165   4.5165   4.5451   4.5451
     4.5451   4.5451   4.6005   4.6006   4.6366   4.6366   4.6619   4.6619
     4.6620   4.6620   4.6749   4.6749   4.6749   4.6749   4.7975   4.7976
     4.8026   4.8026   4.8026   4.8026   4.8729   4.8729   4.8729   4.8729
     4.9803   4.9803   4.9804   4.9804   4.9823   4.9823   5.0088   5.0088
     5.0088   5.0088   5.0503   5.0503   5.0503   5.0503   5.0664   5.0664
     5.0665   5.0665   5.0834   5.0834   5.1384   5.1384   5.1385   5.1385
     5.2531   5.2531   5.2796   5.2796   5.2797   5.2797   5.3424   5.3425
     5.4383   5.4384   5.4696   5.4696   5.5565   5.5565   5.5565   5.5565
     5.6051   5.6051   5.6052   5.6052   5.6220   5.6221   5.6540   5.6540
     5.6541   5.6541   5.6548   5.6548   5.7538   5.7538   5.7539   5.7539
     5.7742   5.7742   5.7743   5.7743   5.7962   5.7962   5.7962   5.7962
     5.8432   5.8433   5.8586   5.8586   5.8586   5.8586   6.0445   6.0445
     6.0446   6.0446   6.0937   6.0937   6.0938   6.0938   6.1100   6.1101
     6.1370   6.1370   6.1371   6.1371   6.1954   6.1954   6.1955   6.1955
     6.2243   6.2244   6.4828   6.4828   6.4828   6.4828   6.5269   6.5269
    11.9116

          k =-0.0000-0.4032 0.0000 (128494 PWs)   bands (ev):

   -12.2483 -12.2483 -11.9405 -11.9405 -11.8354 -11.8354 -11.7572 -11.7572
   -11.6740 -11.6740 -11.6473 -11.6473 -11.3999 -11.3999 -11.3816 -11.3816
   -11.3410 -11.3410 -11.3169 -11.3169 -11.2589 -11.2589 -11.2042 -11.2042
   -11.1276 -11.1276 -10.9254 -10.9254 -10.9026 -10.9026 -10.7865 -10.7865
   -10.7849 -10.7849 -10.7460 -10.7460 -10.7390 -10.7390 -10.7323 -10.7323
   -10.6879 -10.6879 -10.6764 -10.6764 -10.6685 -10.6685 -10.6672 -10.6672
   -10.6422 -10.6422 -10.6072 -10.6072 -10.5961 -10.5961 -10.5672 -10.5672
   -10.5277 -10.5277 -10.5090 -10.5090 -10.4972 -10.4972 -10.4856 -10.4856
   -10.4256 -10.4256 -10.4200 -10.4200 -10.4167 -10.4167 -10.4115 -10.4115
   -10.3356 -10.3356 -10.2765 -10.2765 -10.2570 -10.2570 -10.2458 -10.2458
   -10.2442 -10.2442 -10.1919 -10.1919 -10.1563 -10.1563 -10.1008 -10.1008
   -10.0796 -10.0796 -10.0670 -10.0670 -10.0443 -10.0443 -10.0137 -10.0137
   -10.0005 -10.0005  -9.9856  -9.9856  -9.9630  -9.9630  -9.9555  -9.9555
    -9.9452  -9.9452  -9.9446  -9.9446  -9.9236  -9.9236  -9.9213  -9.9213
    -9.8618  -9.8618  -9.8267  -9.8267  -9.7960  -9.7960  -9.7753  -9.7753
     0.0881   0.0881   0.1240   0.1240   0.3258   0.3258   0.3613   0.3613
     0.4348   0.4348   0.5406   0.5406   0.6277   0.6277   0.6662   0.6662
     0.6847   0.6847   0.7250   0.7250   0.7489   0.7489   0.7791   0.7791
     0.7861   0.7861   0.8716   0.8716   0.8789   0.8789   0.8961   0.8961
     0.9428   0.9428   0.9902   0.9902   1.0589   1.0589   1.1825   1.1825
     1.1894   1.1894   1.2084   1.2084   1.2695   1.2695   1.2750   1.2750
     1.3149   1.3149   1.3461   1.3461   1.4465   1.4465   1.4973   1.4973
     1.5036   1.5036   1.5155   1.5155   1.5291   1.5291   1.6297   1.6297
     1.6485   1.6485   1.6579   1.6579   1.6686   1.6686   1.6944   1.6944
     1.7113   1.7113   1.8332   1.8332   1.8451   1.8451   1.8782   1.8782
     1.8854   1.8854   1.9481   1.9481   1.9503   1.9503   1.9582   1.9582
     1.9883   1.9883   2.1232   2.1232   2.1843   2.1843   2.1941   2.1941
     2.3056   2.3056   2.3333   2.3333   2.4152   2.4152   2.5510   2.5510
     2.5756   2.5756   2.5905   2.5905   2.6302   2.6302   2.6648   2.6648
     2.6844   2.6844   2.7599   2.7599   2.8527   2.8527   2.9220   2.9220
     2.9327   2.9327   2.9555   2.9555   2.9809   2.9809   3.0335   3.0335
     3.0579   3.0579   3.1199   3.1199   3.1211   3.1211   3.1495   3.1495
     3.2334   3.2334   3.2357   3.2357   3.2514   3.2514   3.2657   3.2657
     3.2751   3.2751   3.3266   3.3266   3.3834   3.3834   3.3927   3.3927
     3.4746   3.4746   3.4876   3.4876   3.5064   3.5064   3.5198   3.5198
     3.5745   3.5745   3.6014   3.6014   3.6471   3.6471   3.6670   3.6670
     3.6742   3.6742   3.6939   3.6939   3.7285   3.7285   3.8427   3.8427
     3.8475   3.8475   3.8661   3.8661   3.8790   3.8790   3.8961   3.8961
     3.9096   3.9096   3.9146   3.9146   3.9424   3.9424   3.9793   3.9793
     3.9986   3.9986   4.0068   4.0068   4.0121   4.0121   4.0481   4.0481
     4.0765   4.0765   4.0782   4.0782   4.0946   4.0946   4.1048   4.1048
     4.1193   4.1193   4.1224   4.1224   4.1926   4.1926   4.2107   4.2107
     4.3467   4.3467   4.3566   4.3566   4.3738   4.3738   4.4560   4.4560
     4.4682   4.4682   4.4720   4.4720   4.4875   4.4875   4.5332   4.5332
     4.5612   4.5612   4.5839   4.5839   4.6071   4.6071   4.6116   4.6116
     4.6428   4.6428   4.7266   4.7266   4.7538   4.7538   4.7571   4.7571
     4.8803   4.8803   4.8853   4.8853   4.8858   4.8858   4.8931   4.8931
     4.9018   4.9018   4.9128   4.9128   4.9143   4.9143   4.9601   4.9601
     4.9651   4.9651   4.9651   4.9651   4.9679   4.9679   4.9863   4.9863
     5.0095   5.0095   5.0121   5.0121   5.0354   5.0354   5.0360   5.0360
     5.1747   5.1747   5.1965   5.1965   5.2025   5.2025   5.2056   5.2056
     5.2461   5.2461   5.2594   5.2594   5.2759   5.2759   5.2867   5.2867
     5.3093   5.3093   5.3296   5.3296   5.3743   5.3743   5.4715   5.4715
     5.5175   5.5175   5.5421   5.5421   5.5565   5.5565   5.5709   5.5709
     5.5716   5.5716   5.6305   5.6305   5.6620   5.6620   5.6966   5.6966
     5.7154   5.7154   5.7819   5.7819   5.7885   5.7885   5.8017   5.8017
     5.8735   5.8735   5.9698   5.9698   6.0458   6.0458   6.0922   6.0922
     6.0995   6.0995   6.1086   6.1086   6.1193   6.1193   6.1421   6.1421
     6.1899   6.1899   6.2634   6.2634   6.2858   6.2858   6.3060   6.3060
     6.3123   6.3123   6.3275   6.3275   6.3713   6.3713   6.6437   6.6437
    11.6345

          k =-0.0012-0.4032-0.5388 (128520 PWs)   bands (ev):

   -12.1294 -12.1294 -12.1294 -12.1294 -11.8161 -11.8161 -11.8161 -11.8161
   -11.5488 -11.5488 -11.5488 -11.5488 -11.5133 -11.5133 -11.5132 -11.5132
   -11.3141 -11.3141 -11.3141 -11.3141 -11.0821 -11.0821 -11.0821 -11.0821
   -11.0783 -11.0783 -11.0783 -11.0783 -10.9171 -10.9171 -10.9170 -10.9170
   -10.7331 -10.7331 -10.7331 -10.7331 -10.7151 -10.7151 -10.7151 -10.7151
   -10.7066 -10.7066 -10.7066 -10.7066 -10.6912 -10.6912 -10.6912 -10.6912
   -10.6124 -10.6124 -10.6124 -10.6124 -10.5769 -10.5769 -10.5769 -10.5769
   -10.5141 -10.5141 -10.5140 -10.5140 -10.5003 -10.5003 -10.5003 -10.5003
   -10.4347 -10.4347 -10.4347 -10.4347 -10.4118 -10.4118 -10.4118 -10.4118
   -10.3094 -10.3094 -10.3093 -10.3093 -10.2115 -10.2115 -10.2115 -10.2115
   -10.2092 -10.2092 -10.2092 -10.2092 -10.1446 -10.1446 -10.1446 -10.1446
   -10.1318 -10.1318 -10.1317 -10.1317 -10.0300 -10.0300 -10.0300 -10.0300
   -10.0091 -10.0091 -10.0091 -10.0091  -9.9270  -9.9270  -9.9270  -9.9270
    -9.9009  -9.9009  -9.9009  -9.9009  -9.8871  -9.8871  -9.8871  -9.8871
    -9.8394  -9.8394  -9.8394  -9.8394  -9.8391  -9.8391  -9.8391  -9.8391
     0.3091   0.3091   0.3092   0.3092   0.3850   0.3850   0.3850   0.3850
     0.4891   0.4891   0.4891   0.4891   0.6217   0.6217   0.6217   0.6217
     0.6321   0.6321   0.6321   0.6321   0.7806   0.7806   0.7806   0.7806
     0.8073   0.8073   0.8073   0.8073   0.8771   0.8771   0.8771   0.8771
     0.9371   0.9371   0.9371   0.9371   1.0168   1.0168   1.0168   1.0168
     1.0390   1.0390   1.0390   1.0390   1.2176   1.2176   1.2176   1.2176
     1.3854   1.3854   1.3854   1.3854   1.4559   1.4559   1.4559   1.4559
     1.5076   1.5076   1.5076   1.5076   1.5191   1.5191   1.5191   1.5191
     1.5302   1.5302   1.5302   1.5302   1.6587   1.6587   1.6587   1.6587
     1.7323   1.7323   1.7323   1.7323   1.9500   1.9500   1.9500   1.9500
     1.9634   1.9634   1.9634   1.9634   2.0281   2.0281   2.0281   2.0281
     2.1260   2.1260   2.1260   2.1260   2.3279   2.3279   2.3279   2.3279
     2.4164   2.4164   2.4164   2.4164   2.4477   2.4477   2.4477   2.4477
     2.6030   2.6030   2.6030   2.6030   2.6534   2.6534   2.6535   2.6535
     2.8228   2.8228   2.8228   2.8228   2.8343   2.8343   2.8344   2.8344
     2.8602   2.8602   2.8603   2.8603   2.8860   2.8860   2.8860   2.8860
     3.0793   3.0793   3.0793   3.0793   3.1001   3.1001   3.1002   3.1002
     3.1446   3.1446   3.1446   3.1446   3.3122   3.3122   3.3123   3.3123
     3.3164   3.3164   3.3165   3.3165   3.3546   3.3546   3.3546   3.3546
     3.3688   3.3688   3.3688   3.3688   3.5337   3.5337   3.5337   3.5337
     3.5714   3.5714   3.5714   3.5714   3.7467   3.7467   3.7467   3.7467
     3.7759   3.7759   3.7759   3.7759   3.7761   3.7761   3.7761   3.7761
     3.8224   3.8224   3.8225   3.8225   3.9103   3.9103   3.9103   3.9103
     3.9199   3.9199   3.9199   3.9199   4.0116   4.0116   4.0116   4.0116
     4.0860   4.0860   4.0860   4.0860   4.1172   4.1172   4.1172   4.1172
     4.1315   4.1315   4.1315   4.1315   4.1660   4.1660   4.1661   4.1661
     4.1898   4.1898   4.1898   4.1898   4.3439   4.3439   4.3439   4.3439
     4.3692   4.3692   4.3692   4.3692   4.4588   4.4588   4.4588   4.4588
     4.5108   4.5108   4.5108   4.5108   4.5247   4.5247   4.5247   4.5247
     4.5364   4.5364   4.5365   4.5365   4.5629   4.5629   4.5629   4.5629
     4.6140   4.6140   4.6140   4.6140   4.6749   4.6749   4.6750   4.6750
     4.7944   4.7944   4.7944   4.7944   4.8149   4.8149   4.8149   4.8149
     4.8436   4.8436   4.8436   4.8436   4.8666   4.8666   4.8667   4.8667
     4.9522   4.9522   4.9522   4.9522   5.0316   5.0316   5.0316   5.0316
     5.0466   5.0466   5.0467   5.0467   5.0952   5.0952   5.0952   5.0952
     5.0970   5.0970   5.0970   5.0970   5.1579   5.1579   5.1580   5.1580
     5.2095   5.2095   5.2095   5.2095   5.2407   5.2407   5.2408   5.2408
     5.2422   5.2422   5.2423   5.2423   5.5836   5.5836   5.5837   5.5837
     5.6168   5.6168   5.6168   5.6168   5.6403   5.6403   5.6403   5.6403
     5.6862   5.6862   5.6863   5.6863   5.6928   5.6928   5.6928   5.6928
     5.7536   5.7536   5.7537   5.7537   5.8087   5.8087   5.8087   5.8087
     5.8466   5.8466   5.8467   5.8467   5.9250   5.9250   5.9251   5.9251
     6.0542   6.0542   6.0543   6.0543   6.1587   6.1587   6.1588   6.1588
     6.1841   6.1841   6.1842   6.1842   6.1942   6.1942   6.1944   6.1944
     6.3066   6.3066   6.3066   6.3066   6.5344   6.5344   6.5344   6.5344
    12.2509

          k =-0.4976-0.0000-0.1231 (128590 PWs)   bands (ev):

   -12.2022 -12.2022 -11.9428 -11.9428 -11.8944 -11.8944 -11.8944 -11.8944
   -11.6580 -11.6580 -11.6580 -11.6580 -11.3627 -11.3627 -11.2844 -11.2844
   -11.1476 -11.1476 -11.1476 -11.1476 -11.1157 -11.1157 -11.1157 -11.1157
   -11.0908 -11.0908 -11.0887 -11.0887 -11.0887 -11.0887 -10.9838 -10.9838
   -10.9838 -10.9838 -10.9067 -10.9067 -10.9067 -10.9067 -10.7359 -10.7359
   -10.7359 -10.7359 -10.7249 -10.7249 -10.6143 -10.6143 -10.6143 -10.6143
   -10.5686 -10.5686 -10.5686 -10.5686 -10.5485 -10.5485 -10.5485 -10.5485
   -10.4630 -10.4630 -10.4630 -10.4630 -10.4286 -10.4286 -10.3885 -10.3885
   -10.3885 -10.3885 -10.3694 -10.3694 -10.2970 -10.2970 -10.2970 -10.2970
   -10.2930 -10.2930 -10.2930 -10.2930 -10.2877 -10.2877 -10.2877 -10.2877
   -10.2520 -10.2520 -10.2452 -10.2452 -10.2275 -10.2275 -10.2275 -10.2275
   -10.1211 -10.1211 -10.1211 -10.1211 -10.0443 -10.0443 -10.0443 -10.0443
   -10.0178 -10.0178  -9.9798  -9.9798  -9.9798  -9.9798  -9.8991  -9.8991
    -9.8991  -9.8991  -9.8972  -9.8972  -9.8972  -9.8972  -9.8590  -9.8590
    -9.8590  -9.8590  -9.8522  -9.8522  -9.8279  -9.8279  -9.8279  -9.8279
     0.0362   0.0362   0.2905   0.2905   0.2905   0.2905   0.3511   0.3511
     0.3511   0.3511   0.6043   0.6043   0.6375   0.6375   0.6375   0.6375
     0.7084   0.7084   0.7084   0.7084   0.7371   0.7371   0.7763   0.7763
     0.7763   0.7763   0.9079   0.9079   0.9079   0.9079   1.0164   1.0164
     1.0164   1.0164   1.0259   1.0259   1.0259   1.0259   1.0884   1.0884
     1.1637   1.1637   1.1637   1.1637   1.2427   1.2427   1.2427   1.2427
     1.3630   1.3630   1.3630   1.3630   1.3715   1.3715   1.3715   1.3715
     1.3785   1.3785   1.3785   1.3785   1.5059   1.5059   1.5855   1.5855
     1.6286   1.6286   1.6286   1.6286   1.6593   1.6593   1.6593   1.6593
     1.7141   1.7141   1.7141   1.7141   1.8786   1.8786   1.8786   1.8786
     2.0509   2.0509   2.0509   2.0509   2.0899   2.0899   2.0899   2.0899
     2.1098   2.1098   2.1981   2.1981   2.1981   2.1981   2.3448   2.3448
     2.3448   2.3448   2.3962   2.3962   2.4471   2.4471   2.4471   2.4471
     2.5109   2.5109   2.5109   2.5109   2.5451   2.5451   2.5451   2.5451
     2.8237   2.8237   2.8237   2.8237   2.8315   2.8315   2.9557   2.9557
     2.9557   2.9557   2.9715   2.9715   2.9715   2.9715   2.9935   2.9935
     2.9936   2.9936   3.0221   3.0221   3.0221   3.0221   3.1093   3.1093
     3.3187   3.3187   3.3402   3.3402   3.3402   3.3402   3.4131   3.4131
     3.4131   3.4131   3.4410   3.4410   3.4410   3.4410   3.4634   3.4634
     3.4634   3.4634   3.4640   3.4640   3.4640   3.4640   3.5008   3.5008
     3.5147   3.5147   3.5147   3.5147   3.5291   3.5291   3.6294   3.6294
     3.6294   3.6294   3.6442   3.6442   3.6442   3.6442   3.6659   3.6659
     3.6659   3.6659   3.6730   3.6730   3.7559   3.7559   3.7559   3.7559
     3.7731   3.7731   3.8897   3.8897   4.0667   4.0667   4.0667   4.0667
     4.0801   4.0801   4.0801   4.0801   4.1294   4.1294   4.1294   4.1294
     4.1417   4.1417   4.1417   4.1417   4.1437   4.1437   4.1659   4.1659
     4.1659   4.1659   4.2034   4.2034   4.2441   4.2441   4.2441   4.2441
     4.2842   4.2842   4.3694   4.3694   4.3694   4.3694   4.4028   4.4028
     4.4543   4.4543   4.4978   4.4978   4.4978   4.4978   4.5761   4.5761
     4.5761   4.5761   4.5832   4.5832   4.5832   4.5832   4.6044   4.6044
     4.6044   4.6044   4.6867   4.6867   4.7265   4.7265   4.7613   4.7613
     4.7613   4.7613   4.8481   4.8481   4.8481   4.8481   4.8807   4.8807
     4.8807   4.8807   4.9141   4.9141   4.9420   4.9420   4.9420   4.9420
     4.9687   4.9687   4.9794   4.9794   4.9794   4.9794   5.0249   5.0249
     5.0249   5.0249   5.0781   5.0781   5.0781   5.0781   5.1193   5.1193
     5.1309   5.1309   5.1309   5.1309   5.1828   5.1828   5.1828   5.1828
     5.2118   5.2118   5.2760   5.2761   5.2850   5.2850   5.2850   5.2850
     5.3010   5.3010   5.3010   5.3010   5.3628   5.3628   5.5705   5.5705
     5.5711   5.5711   5.6079   5.6079   5.6079   5.6079   5.6348   5.6348
     5.6348   5.6348   5.6980   5.6980   5.7484   5.7484   5.7484   5.7484
     5.7529   5.7529   5.7622   5.7622   5.7623   5.7623   5.7874   5.7874
     5.7874   5.7874   5.8267   5.8267   5.8267   5.8267   5.9667   5.9667
     5.9667   5.9667   6.0644   6.0644   6.1336   6.1336   6.1336   6.1336
     6.3112   6.3112   6.3112   6.3112   6.3157   6.3157   6.3242   6.3242
     6.3242   6.3242   6.4356   6.4356   6.4356   6.4356   6.5498   6.5498
    11.8572

          k =-0.4988-0.0000-0.6619 (128468 PWs)   bands (ev):

   -12.1477 -12.1477 -12.0354 -12.0354 -11.8423 -11.8423 -11.8423 -11.8423
   -11.7439 -11.7439 -11.7439 -11.7439 -11.3995 -11.3995 -11.1716 -11.1716
   -11.1716 -11.1716 -11.1227 -11.1227 -11.1017 -11.1017 -11.1017 -11.1017
   -11.0501 -11.0501 -11.0501 -11.0501 -10.9942 -10.9942 -10.9451 -10.9451
   -10.9451 -10.9451 -10.9394 -10.9394 -10.8014 -10.8014 -10.8014 -10.8014
   -10.7537 -10.7537 -10.7537 -10.7537 -10.7305 -10.7305 -10.7305 -10.7305
   -10.6486 -10.6486 -10.6486 -10.6486 -10.5057 -10.5057 -10.4516 -10.4516
   -10.4516 -10.4516 -10.4478 -10.4478 -10.4478 -10.4478 -10.3784 -10.3784
   -10.3784 -10.3784 -10.3767 -10.3767 -10.3767 -10.3767 -10.3411 -10.3411
   -10.3411 -10.3411 -10.3123 -10.3123 -10.2679 -10.2679 -10.2484 -10.2484
   -10.2484 -10.2484 -10.2436 -10.2436 -10.2436 -10.2436 -10.1795 -10.1795
   -10.0894 -10.0894 -10.0894 -10.0894  -9.9903  -9.9903  -9.9903  -9.9903
    -9.9621  -9.9621  -9.9621  -9.9621  -9.9554  -9.9554  -9.9264  -9.9264
    -9.9264  -9.9264  -9.9132  -9.9132  -9.8699  -9.8699  -9.8699  -9.8699
    -9.8668  -9.8668  -9.8668  -9.8668  -9.8662  -9.8662  -9.8662  -9.8662
     0.1438   0.1438   0.3976   0.3976   0.3976   0.3976   0.5096   0.5096
     0.5104   0.5104   0.5104   0.5104   0.5113   0.5113   0.5113   0.5113
     0.6948   0.6948   0.6948   0.6948   0.7380   0.7380   0.7380   0.7380
     0.7822   0.7822   0.9363   0.9363   0.9363   0.9363   1.0113   1.0113
     1.0130   1.0130   1.0130   1.0130   1.0285   1.0285   1.0285   1.0285
     1.0919   1.0919   1.0919   1.0919   1.1645   1.1645   1.1645   1.1645
     1.2853   1.2853   1.2853   1.2853   1.3239   1.3239   1.3911   1.3911
     1.3911   1.3911   1.4303   1.4303   1.4303   1.4303   1.5453   1.5453
     1.5453   1.5453   1.5650   1.5650   1.5650   1.5650   1.5876   1.5876
     1.8825   1.8825   1.8825   1.8825   1.8872   1.8872   1.8872   1.8872
     1.9674   1.9674   1.9674   1.9674   2.0203   2.0203   2.0203   2.0203
     2.0913   2.0913   2.0913   2.0913   2.2540   2.2540   2.3752   2.3752
     2.3752   2.3752   2.5594   2.5594   2.5594   2.5594   2.6354   2.6354
     2.6354   2.6354   2.6802   2.6802   2.7189   2.7189   2.7189   2.7189
     2.7345   2.7345   2.7345   2.7345   2.7649   2.7649   2.8520   2.8520
     2.8520   2.8520   2.8839   2.8839   2.8839   2.8839   2.8881   2.8881
     3.0540   3.0540   3.0540   3.0540   3.0916   3.0916   3.0916   3.0916
     3.2856   3.2856   3.2856   3.2856   3.2934   3.2934   3.2934   3.2934
     3.2976   3.2976   3.3021   3.3021   3.3021   3.3021   3.3558   3.3558
     3.3558   3.3558   3.3875   3.3875   3.4630   3.4630   3.4630   3.4630
     3.5030   3.5030   3.5030   3.5030   3.5764   3.5764   3.6486   3.6486
     3.7820   3.7820   3.7820   3.7820   3.8291   3.8291   3.8291   3.8291
     3.8519   3.8519   3.8519   3.8519   3.9505   3.9505   3.9505   3.9505
     4.0144   4.0144   4.0148   4.0148   4.0148   4.0148   4.0498   4.0498
     4.0498   4.0498   4.0570   4.0570   4.0736   4.0736   4.0736   4.0736
     4.1066   4.1066   4.1236   4.1236   4.2858   4.2858   4.2858   4.2858
     4.2949   4.2949   4.2949   4.2949   4.3092   4.3092   4.3092   4.3092
     4.3715   4.3715   4.4368   4.4368   4.4368   4.4368   4.4652   4.4652
     4.4652   4.4652   4.4822   4.4822   4.5026   4.5026   4.5082   4.5082
     4.5649   4.5649   4.5649   4.5649   4.5841   4.5841   4.5841   4.5841
     4.6175   4.6176   4.6176   4.6176   4.6392   4.6392   4.6392   4.6392
     4.6808   4.6808   4.6808   4.6808   4.7221   4.7221   4.7736   4.7736
     4.7736   4.7736   4.7746   4.7746   4.8240   4.8240   4.8240   4.8240
     4.8307   4.8307   4.8307   4.8307   4.9586   4.9586   5.0258   5.0258
     5.0258   5.0258   5.0606   5.0606   5.0606   5.0606   5.0725   5.0725
     5.0765   5.0765   5.0765   5.0765   5.2847   5.2847   5.2847   5.2847
     5.2889   5.2889   5.3228   5.3228   5.3228   5.3228   5.3415   5.3415
     5.4106   5.4106   5.4106   5.4106   5.4358   5.4358   5.5390   5.5390
     5.5936   5.5936   5.6220   5.6220   5.6391   5.6391   5.6736   5.6736
     5.6736   5.6736   5.7285   5.7285   5.7285   5.7285   5.7344   5.7344
     5.7344   5.7344   5.7961   5.7961   5.7961   5.7961   5.8010   5.8010
     5.8010   5.8010   5.8170   5.8170   5.8170   5.8170   5.9404   5.9404
     5.9404   5.9404   5.9804   5.9804   6.0901   6.0901   6.0901   6.0901
     6.1107   6.1107   6.1107   6.1107   6.3748   6.3748   6.3748   6.3748
     6.4016   6.4016   6.4016   6.4016   6.4355   6.4355   6.5109   6.5109
    12.1815

          k =-0.4976-0.4032-0.1231 (128640 PWs)   bands (ev):

   -12.1226 -12.1226 -12.1226 -12.1226 -11.8688 -11.8688 -11.8688 -11.8688
   -11.5506 -11.5506 -11.5506 -11.5506 -11.3440 -11.3440 -11.3440 -11.3440
   -11.2978 -11.2978 -11.2978 -11.2978 -11.2317 -11.2317 -11.2317 -11.2317
   -11.0413 -11.0413 -11.0413 -11.0413 -10.9000 -10.9000 -10.9000 -10.9000
   -10.8562 -10.8562 -10.8562 -10.8562 -10.7703 -10.7702 -10.7563 -10.7563
   -10.7277 -10.7277 -10.7277 -10.7277 -10.6825 -10.6825 -10.6825 -10.6825
   -10.6617 -10.6617 -10.6606 -10.6606 -10.6488 -10.6488 -10.5076 -10.5076
   -10.4256 -10.4256 -10.4223 -10.4223 -10.4223 -10.4223 -10.3899 -10.3899
   -10.3899 -10.3899 -10.3448 -10.3448 -10.3448 -10.3448 -10.3077 -10.3077
   -10.3077 -10.3077 -10.2651 -10.2651 -10.2651 -10.2651 -10.2444 -10.2444
   -10.2371 -10.2371 -10.2371 -10.2371 -10.2164 -10.2164 -10.2164 -10.2164
   -10.1526 -10.1526 -10.1526 -10.1526 -10.0078 -10.0078 -10.0078 -10.0078
   -10.0016 -10.0016  -9.9996  -9.9996  -9.9996  -9.9996  -9.9545  -9.9545
    -9.9268  -9.9268  -9.9268  -9.9268  -9.8608  -9.8608  -9.8431  -9.8431
    -9.8431  -9.8431  -9.8376  -9.8376  -9.8376  -9.8376  -9.8276  -9.8276
     0.1023   0.1023   0.1220   0.1220   0.1220   0.1220   0.5563   0.5563
     0.5640   0.5640   0.5640   0.5640   0.5749   0.5749   0.6586   0.6586
     0.6586   0.6586   0.8156   0.8156   0.8156   0.8156   0.8497   0.8497
     0.8497   0.8497   0.9004   0.9004   0.9004   0.9004   0.9483   0.9483
     0.9538   0.9538   1.0234   1.0234   1.0234   1.0234   1.0816   1.0816
     1.1217   1.1217   1.1217   1.1217   1.1639   1.1639   1.1639   1.1639
     1.2076   1.2076   1.2768   1.2768   1.4367   1.4367   1.4528   1.4528
     1.4528   1.4528   1.4960   1.4960   1.5008   1.5008   1.5008   1.5008
     1.5420   1.5420   1.5420   1.5420   1.6342   1.6342   1.6342   1.6342
     1.8280   1.8280   1.8280   1.8280   1.9139   1.9139   1.9472   1.9472
     1.9472   1.9472   2.0399   2.0399   2.0532   2.0532   2.0532   2.0532
     2.1152   2.1152   2.1152   2.1152   2.3246   2.3246   2.3246   2.3246
     2.4342   2.4342   2.4342   2.4342   2.4639   2.4639   2.4639   2.4639
     2.5936   2.5936   2.6274   2.6274   2.6274   2.6274   2.6709   2.6709
     2.6709   2.6709   2.7530   2.7530   2.7530   2.7530   2.8935   2.8935
     2.9700   2.9700   2.9805   2.9805   2.9805   2.9805   2.9882   2.9882
     2.9882   2.9882   3.0969   3.0969   3.0969   3.0969   3.1150   3.1150
     3.1150   3.1150   3.1876   3.1877   3.2105   3.2105   3.3010   3.3010
     3.3010   3.3010   3.3022   3.3022   3.3022   3.3022   3.3591   3.3591
     3.3591   3.3591   3.4475   3.4475   3.4475   3.4475   3.4661   3.4661
     3.6437   3.6437   3.6437   3.6437   3.6757   3.6757   3.6886   3.6886
     3.6886   3.6886   3.7423   3.7423   3.7423   3.7423   3.7683   3.7684
     3.8228   3.8228   3.8228   3.8228   3.8687   3.8687   3.8883   3.8883
     3.8883   3.8883   3.9670   3.9670   3.9670   3.9670   3.9837   3.9837
     3.9927   3.9927   3.9927   3.9927   4.0367   4.0368   4.0412   4.0412
     4.0412   4.0412   4.0436   4.0436   4.0436   4.0436   4.0929   4.0929
     4.0929   4.0929   4.2562   4.2562   4.2562   4.2562   4.3578   4.3578
     4.3925   4.3925   4.3925   4.3925   4.4444   4.4444   4.4444   4.4444
     4.4558   4.4558   4.4558   4.4558   4.5488   4.5488   4.5488   4.5488
     4.5816   4.5816   4.5816   4.5816   4.6231   4.6231   4.6231   4.6231
     4.6586   4.6586   4.7110   4.7110   4.7375   4.7375   4.8388   4.8388
     4.8388   4.8388   4.8470   4.8470   4.8470   4.8470   4.8727   4.8727
     4.8727   4.8727   4.8872   4.8872   4.8872   4.8872   4.9881   4.9881
     4.9881   4.9881   4.9942   4.9942   4.9942   4.9942   5.0166   5.0166
     5.0710   5.0710   5.0710   5.0710   5.0962   5.0962   5.0962   5.0962
     5.1009   5.1009   5.1009   5.1009   5.1044   5.1044   5.2051   5.2051
     5.2051   5.2051   5.2208   5.2208   5.2208   5.2208   5.2397   5.2397
     5.2793   5.2793   5.2793   5.2793   5.4452   5.4452   5.4801   5.4801
     5.4801   5.4801   5.5982   5.5982   5.5982   5.5982   5.6503   5.6503
     5.6503   5.6503   5.6550   5.6550   5.6984   5.6984   5.7552   5.7552
     5.7785   5.7785   5.7785   5.7785   5.7840   5.7840   5.7840   5.7840
     5.7908   5.7908   5.8152   5.8152   5.8152   5.8152   6.0013   6.0013
     6.0013   6.0013   6.1286   6.1286   6.1286   6.1286   6.2370   6.2370
     6.2370   6.2370   6.3062   6.3062   6.3194   6.3194   6.3194   6.3194
     6.3202   6.3202   6.3202   6.3202   6.5304   6.5304   6.5304   6.5304
    12.1635

          k =-0.4988-0.4032-0.6619 (128572 PWs)   bands (ev):

   -12.0687 -12.0687 -12.0687 -12.0687 -11.9597 -11.9597 -11.9597 -11.9597
   -11.5013 -11.5013 -11.5013 -11.5013 -11.4216 -11.4216 -11.4216 -11.4216
   -11.3389 -11.3389 -11.3389 -11.3389 -11.0746 -11.0746 -11.0746 -11.0746
   -10.9430 -10.9430 -10.9430 -10.9430 -10.9429 -10.9429 -10.9429 -10.9429
   -10.8899 -10.8899 -10.8899 -10.8899 -10.7795 -10.7795 -10.7795 -10.7795
   -10.7240 -10.7240 -10.7240 -10.7240 -10.7039 -10.7039 -10.7039 -10.7039
   -10.6087 -10.6087 -10.6087 -10.6087 -10.6068 -10.6068 -10.6068 -10.6068
   -10.5677 -10.5677 -10.5677 -10.5677 -10.4600 -10.4600 -10.4600 -10.4600
   -10.3094 -10.3094 -10.3094 -10.3094 -10.3049 -10.3049 -10.3049 -10.3049
   -10.2902 -10.2902 -10.2902 -10.2902 -10.2632 -10.2632 -10.2632 -10.2632
   -10.2590 -10.2590 -10.2590 -10.2590 -10.1543 -10.1543 -10.1543 -10.1543
   -10.1466 -10.1466 -10.1466 -10.1466 -10.0138 -10.0138 -10.0138 -10.0138
    -9.9470  -9.9470  -9.9470  -9.9470  -9.9267  -9.9267  -9.9266  -9.9266
    -9.8985  -9.8985  -9.8985  -9.8985  -9.8953  -9.8953  -9.8953  -9.8953
    -9.8874  -9.8874  -9.8874  -9.8874  -9.8467  -9.8467  -9.8467  -9.8467
     0.2402   0.2402   0.2402   0.2402   0.2743   0.2743   0.2743   0.2743
     0.5659   0.5659   0.5659   0.5659   0.7069   0.7069   0.7069   0.7069
     0.7543   0.7544   0.7544   0.7544   0.8332   0.8332   0.8332   0.8332
     0.8541   0.8541   0.8541   0.8541   0.9346   0.9346   0.9347   0.9347
     1.0237   1.0237   1.0237   1.0237   1.0429   1.0429   1.0429   1.0429
     1.0711   1.0711   1.0711   1.0711   1.0956   1.0956   1.0956   1.0956
     1.2144   1.2144   1.2144   1.2144   1.2954   1.2954   1.2955   1.2955
     1.3461   1.3461   1.3461   1.3461   1.5355   1.5355   1.5355   1.5355
     1.6083   1.6083   1.6083   1.6083   1.6095   1.6095   1.6095   1.6095
     1.6134   1.6134   1.6135   1.6135   1.8273   1.8273   1.8273   1.8273
     2.0978   2.0978   2.0978   2.0978   2.1674   2.1674   2.1674   2.1674
     2.2752   2.2752   2.2752   2.2752   2.3597   2.3597   2.3597   2.3597
     2.5089   2.5089   2.5089   2.5089   2.5712   2.5712   2.5712   2.5713
     2.5970   2.5970   2.5970   2.5970   2.6778   2.6778   2.6778   2.6778
     2.7455   2.7455   2.7455   2.7455   2.7651   2.7651   2.7651   2.7651
     2.8244   2.8244   2.8244   2.8244   2.8331   2.8331   2.8331   2.8331
     3.0743   3.0743   3.0743   3.0743   3.0807   3.0807   3.0808   3.0808
     3.0816   3.0816   3.0816   3.0816   3.0966   3.0966   3.0966   3.0966
     3.1924   3.1924   3.1924   3.1924   3.5349   3.5349   3.5349   3.5349
     3.5385   3.5385   3.5385   3.5385   3.5812   3.5812   3.5812   3.5812
     3.6148   3.6148   3.6148   3.6148   3.6970   3.6971   3.6971   3.6971
     3.7814   3.7814   3.7814   3.7814   3.9152   3.9152   3.9152   3.9152
     3.9204   3.9204   3.9204   3.9204   3.9313   3.9313   3.9313   3.9313
     3.9389   3.9389   3.9389   3.9389   3.9584   3.9584   3.9584   3.9584
     4.0075   4.0075   4.0075   4.0075   4.0408   4.0408   4.0408   4.0408
     4.0528   4.0528   4.0528   4.0528   4.1615   4.1615   4.1615   4.1615
     4.2316   4.2316   4.2316   4.2316   4.2334   4.2334   4.2335   4.2335
     4.4009   4.4009   4.4009   4.4009   4.4649   4.4649   4.4649   4.4649
     4.5416   4.5416   4.5416   4.5416   4.5726   4.5726   4.5726   4.5726
     4.5736   4.5736   4.5737   4.5737   4.6148   4.6148   4.6148   4.6148
     4.6222   4.6222   4.6222   4.6222   4.6584   4.6584   4.6585   4.6585
     4.6854   4.6854   4.6855   4.6855   4.7622   4.7622   4.7622   4.7622
     4.8192   4.8192   4.8192   4.8192   4.9388   4.9388   4.9388   4.9388
     4.9428   4.9428   4.9428   4.9428   4.9485   4.9485   4.9485   4.9485
     5.0323   5.0323   5.0323   5.0323   5.0784   5.0784   5.0784   5.0784
     5.1393   5.1393   5.1394   5.1394   5.1651   5.1651   5.1651   5.1651
     5.2460   5.2460   5.2460   5.2460   5.2475   5.2475   5.2475   5.2475
     5.3588   5.3588   5.3589   5.3589   5.4845   5.4845   5.4845   5.4845
     5.5686   5.5686   5.5686   5.5686   5.6644   5.6644   5.6644   5.6644
     5.7210   5.7210   5.7210   5.7210   5.7274   5.7274   5.7274   5.7274
     5.7419   5.7419   5.7419   5.7419   5.8300   5.8300   5.8300   5.8300
     5.8309   5.8309   5.8309   5.8309   5.9172   5.9172   5.9172   5.9172
     5.9351   5.9351   5.9351   5.9351   6.0426   6.0426   6.0427   6.0427
     6.2261   6.2261   6.2261   6.2261   6.2686   6.2686   6.2686   6.2686
     6.4414   6.4414   6.4414   6.4414   6.4789   6.4789   6.4789   6.4789
    12.4819

     highest occupied, lowest unoccupied level (ev):     6.6569   11.2099

!    total energy              =   -4196.66330382 Ry
     estimated scf accuracy    <          1.5E-10 Ry

     The total energy is the sum of the following terms:
     one-electron contribution =   -1050.58867960 Ry
     hartree contribution      =    1176.40924412 Ry
     xc contribution           =    -998.78131919 Ry
     ewald contribution        =   -3323.70254915 Ry

     convergence has been achieved in  12 iterations

     Forces acting on atoms (cartesian axes, Ry/au):

     atom    1 type  1   force =     0.00025680    0.00000119   -0.00005300
     atom    2 type  1   force =    -0.00026177    0.00000110    0.00005032
     atom    3 type  1   force =     0.00025673    0.00000120   -0.00005281
     atom    4 type  1   force =    -0.00026170    0.00000110    0.00005015
     atom    5 type  1   force =     0.00026374   -0.00000000   -0.00006496
     atom    6 type  1   force =    -0.00026457   -0.00000005    0.00006088
     atom    7 type  1   force =     0.00026382   -0.00000004   -0.00006472
     atom    8 type  1   force =    -0.00026465   -0.00000008    0.00006063
     atom    9 type  2   force =     0.00042814    0.00000143    0.00040539
     atom   10 type  2   force =    -0.00044163    0.00000140   -0.00040173
     atom   11 type  2   force =     0.00042814    0.00000140    0.00040515
     atom   12 type  2   force =    -0.00044163    0.00000136   -0.00040148
     atom   13 type  2   force =    -0.00036289   -0.00000004    0.00029393
     atom   14 type  2   force =     0.00035486   -0.00000006   -0.00028499
     atom   15 type  2   force =    -0.00036302   -0.00000001    0.00029388
     atom   16 type  2   force =     0.00035500   -0.00000003   -0.00028492
     atom   17 type  2   force =     0.00015735   -0.00000260    0.00011958
     atom   18 type  2   force =    -0.00015203   -0.00000269   -0.00012061
     atom   19 type  2   force =     0.00015738   -0.00000258    0.00011973
     atom   20 type  2   force =    -0.00015206   -0.00000267   -0.00012079
     atom   21 type  1   force =     0.00025681    0.00000120   -0.00005304
     atom   22 type  1   force =    -0.00026177    0.00000111    0.00005037
     atom   23 type  1   force =     0.00025675    0.00000122   -0.00005281
     atom   24 type  1   force =    -0.00026172    0.00000113    0.00005014
     atom   25 type  1   force =     0.00026375    0.00000000   -0.00006496
     atom   26 type  1   force =    -0.00026458   -0.00000004    0.00006088
     atom   27 type  1   force =     0.00026381   -0.00000003   -0.00006472
     atom   28 type  1   force =    -0.00026465   -0.00000006    0.00006064
     atom   29 type  2   force =     0.00042813    0.00000143    0.00040538
     atom   30 type  2   force =    -0.00044162    0.00000138   -0.00040173
     atom   31 type  2   force =     0.00042814    0.00000141    0.00040514
     atom   32 type  2   force =    -0.00044163    0.00000138   -0.00040148
     atom   33 type  2   force =    -0.00036290   -0.00000003    0.00029393
     atom   34 type  2   force =     0.00035487   -0.00000005   -0.00028499
     atom   35 type  2   force =    -0.00036301   -0.00000000    0.00029387
     atom   36 type  2   force =     0.00035499   -0.00000003   -0.00028490
     atom   37 type  2   force =     0.00015734   -0.00000256    0.00011955
     atom   38 type  2   force =    -0.00015202   -0.00000265   -0.00012059
     atom   39 type  2   force =     0.00015740   -0.00000253    0.00011973
     atom   40 type  2   force =    -0.00015207   -0.00000262   -0.00012081
     atom   41 type  1   force =     0.00025678    0.00000120   -0.00005301
     atom   42 type  1   force =    -0.00026174    0.00000111    0.00005034
     atom   43 type  1   force =     0.00025672    0.00000120   -0.00005279
     atom   44 type  1   force =    -0.00026169    0.00000110    0.00005013
     atom   45 type  1   force =     0.00026374    0.00000001   -0.00006495
     atom   46 type  1   force =    -0.00026458   -0.00000003    0.00006088
     atom   47 type  1   force =     0.00026381   -0.00000003   -0.00006472
     atom   48 type  1   force =    -0.00026464   -0.00000007    0.00006064
     atom   49 type  2   force =     0.00042813    0.00000143    0.00040538
     atom   50 type  2   force =    -0.00044162    0.00000138   -0.00040172
     atom   51 type  2   force =     0.00042814    0.00000139    0.00040513
     atom   52 type  2   force =    -0.00044163    0.00000136   -0.00040149
     atom   53 type  2   force =    -0.00036289   -0.00000004    0.00029393
     atom   54 type  2   force =     0.00035486   -0.00000005   -0.00028497
     atom   55 type  2   force =    -0.00036301    0.00000001    0.00029386
     atom   56 type  2   force =     0.00035500   -0.00000003   -0.00028490
     atom   57 type  2   force =     0.00015737   -0.00000255    0.00011953
     atom   58 type  2   force =    -0.00015204   -0.00000264   -0.00012059
     atom   59 type  2   force =     0.00015740   -0.00000258    0.00011973
     atom   60 type  2   force =    -0.00015209   -0.00000269   -0.00012079
     atom   61 type  1   force =     0.00025680    0.00000117   -0.00005301
     atom   62 type  1   force =    -0.00026176    0.00000109    0.00005035
     atom   63 type  1   force =     0.00025675    0.00000120   -0.00005283
     atom   64 type  1   force =    -0.00026171    0.00000111    0.00005016
     atom   65 type  1   force =     0.00026374    0.00000001   -0.00006495
     atom   66 type  1   force =    -0.00026458   -0.00000004    0.00006087
     atom   67 type  1   force =     0.00026382   -0.00000002   -0.00006472
     atom   68 type  1   force =    -0.00026464   -0.00000006    0.00006064
     atom   69 type  2   force =     0.00042813    0.00000142    0.00040537
     atom   70 type  2   force =    -0.00044161    0.00000138   -0.00040171
     atom   71 type  2   force =     0.00042814    0.00000141    0.00040513
     atom   72 type  2   force =    -0.00044163    0.00000138   -0.00040149
     atom   73 type  2   force =    -0.00036289   -0.00000004    0.00029395
     atom   74 type  2   force =     0.00035486   -0.00000006   -0.00028498
     atom   75 type  2   force =    -0.00036301    0.00000001    0.00029387
     atom   76 type  2   force =     0.00035499   -0.00000001   -0.00028492
     atom   77 type  2   force =     0.00015737   -0.00000260    0.00011952
     atom   78 type  2   force =    -0.00015203   -0.00000270   -0.00012060
     atom   79 type  2   force =     0.00015737   -0.00000256    0.00011971
     atom   80 type  2   force =    -0.00015207   -0.00000266   -0.00012075
     atom   81 type  1   force =     0.00025679    0.00000120   -0.00005301
     atom   82 type  1   force =    -0.00026175    0.00000111    0.00005034
     atom   83 type  1   force =     0.00025675    0.00000120   -0.00005279
     atom   84 type  1   force =    -0.00026172    0.00000111    0.00005012
     atom   85 type  1   force =     0.00026375    0.00000002   -0.00006495
     atom   86 type  1   force =    -0.00026458   -0.00000003    0.00006088
     atom   87 type  1   force =     0.00026380   -0.00000002   -0.00006473
     atom   88 type  1   force =    -0.00026464   -0.00000006    0.00006064
     atom   89 type  2   force =     0.00042813    0.00000143    0.00040538
     atom   90 type  2   force =    -0.00044161    0.00000141   -0.00040172
     atom   91 type  2   force =     0.00042816    0.00000140    0.00040514
     atom   92 type  2   force =    -0.00044165    0.00000136   -0.00040149
     atom   93 type  2   force =    -0.00036292   -0.00000000    0.00029395
     atom   94 type  2   force =     0.00035486   -0.00000003   -0.00028501
     atom   95 type  2   force =    -0.00036301    0.00000001    0.00029386
     atom   96 type  2   force =     0.00035497   -0.00000002   -0.00028492
     atom   97 type  2   force =     0.00015736   -0.00000255    0.00011953
     atom   98 type  2   force =    -0.00015202   -0.00000265   -0.00012059
     atom   99 type  2   force =     0.00015739   -0.00000253    0.00011973
     atom  100 type  2   force =    -0.00015207   -0.00000263   -0.00012080
     atom  101 type  1   force =     0.00026148    0.00000117   -0.00005394
     atom  102 type  1   force =    -0.00025710    0.00000120    0.00004924
     atom  103 type  1   force =     0.00026142    0.00000117   -0.00005377
     atom  104 type  1   force =    -0.00025704    0.00000120    0.00004905
     atom  105 type  1   force =     0.00026937   -0.00000004   -0.00006551
     atom  106 type  1   force =    -0.00025913    0.00000009    0.00006024
     atom  107 type  1   force =     0.00026945   -0.00000007   -0.00006526
     atom  108 type  1   force =    -0.00025921    0.00000005    0.00006000
     atom  109 type  2   force =     0.00042925    0.00000138    0.00040446
     atom  110 type  2   force =    -0.00044057    0.00000152   -0.00040282
     atom  111 type  2   force =     0.00042925    0.00000135    0.00040419
     atom  112 type  2   force =    -0.00044058    0.00000148   -0.00040257
     atom  113 type  2   force =    -0.00035756   -0.00000007    0.00029258
     atom  114 type  2   force =     0.00036011    0.00000008   -0.00028646
     atom  115 type  2   force =    -0.00035768   -0.00000005    0.00029253
     atom  116 type  2   force =     0.00036027    0.00000010   -0.00028641
     atom  117 type  2   force =     0.00016284   -0.00000242    0.00011882
     atom  118 type  2   force =    -0.00014670   -0.00000272   -0.00012142
     atom  119 type  2   force =     0.00016285   -0.00000240    0.00011901
     atom  120 type  2   force =    -0.00014675   -0.00000270   -0.00012161
     atom  121 type  1   force =     0.00026148    0.00000118   -0.00005399
     atom  122 type  1   force =    -0.00025710    0.00000121    0.00004928
     atom  123 type  1   force =     0.00026144    0.00000119   -0.00005377
     atom  124 type  1   force =    -0.00025706    0.00000123    0.00004905
     atom  125 type  1   force =     0.00026938   -0.00000004   -0.00006550
     atom  126 type  1   force =    -0.00025914    0.00000009    0.00006025
     atom  127 type  1   force =     0.00026945   -0.00000006   -0.00006526
     atom  128 type  1   force =    -0.00025920    0.00000006    0.00006001
     atom  129 type  2   force =     0.00042924    0.00000137    0.00040446
     atom  130 type  2   force =    -0.00044057    0.00000151   -0.00040281
     atom  131 type  2   force =     0.00042925    0.00000136    0.00040420
     atom  132 type  2   force =    -0.00044060    0.00000150   -0.00040257
     atom  133 type  2   force =    -0.00035756   -0.00000007    0.00029259
     atom  134 type  2   force =     0.00036011    0.00000009   -0.00028648
     atom  135 type  2   force =    -0.00035768   -0.00000005    0.00029250
     atom  136 type  2   force =     0.00036026    0.00000011   -0.00028639
     atom  137 type  2   force =     0.00016282   -0.00000239    0.00011881
     atom  138 type  2   force =    -0.00014669   -0.00000268   -0.00012140
     atom  139 type  2   force =     0.00016285   -0.00000236    0.00011905
     atom  140 type  2   force =    -0.00014676   -0.00000265   -0.00012162
     atom  141 type  1   force =     0.00026146    0.00000118   -0.00005396
     atom  142 type  1   force =    -0.00025707    0.00000121    0.00004926
     atom  143 type  1   force =     0.00026141    0.00000117   -0.00005376
     atom  144 type  1   force =    -0.00025703    0.00000121    0.00004904
     atom  145 type  1   force =     0.00026938   -0.00000002   -0.00006550
     atom  146 type  1   force =    -0.00025914    0.00000010    0.00006024
     atom  147 type  1   force =     0.00026945   -0.00000006   -0.00006527
     atom  148 type  1   force =    -0.00025920    0.00000006    0.00006001
     atom  149 type  2   force =     0.00042924    0.00000137    0.00040447
     atom  150 type  2   force =    -0.00044057    0.00000151   -0.00040281
     atom  151 type  2   force =     0.00042924    0.00000135    0.00040421
     atom  152 type  2   force =    -0.00044060    0.00000147   -0.00040257
     atom  153 type  2   force =    -0.00035757   -0.00000007    0.00029257
     atom  154 type  2   force =     0.00036012    0.00000007   -0.00028645
     atom  155 type  2   force =    -0.00035767   -0.00000004    0.00029250
     atom  156 type  2   force =     0.00036027    0.00000012   -0.00028638
     atom  157 type  2   force =     0.00016285   -0.00000237    0.00011882
     atom  158 type  2   force =    -0.00014671   -0.00000267   -0.00012141
     atom  159 type  2   force =     0.00016287   -0.00000242    0.00011904
     atom  160 type  2   force =    -0.00014676   -0.00000270   -0.00012162
     atom  161 type  1   force =     0.00026148    0.00000116   -0.00005397
     atom  162 type  1   force =    -0.00025710    0.00000118    0.00004926
     atom  163 type  1   force =     0.00026143    0.00000118   -0.00005379
     atom  164 type  1   force =    -0.00025706    0.00000121    0.00004907
     atom  165 type  1   force =     0.00026938   -0.00000003   -0.00006549
     atom  166 type  1   force =    -0.00025913    0.00000010    0.00006024
     atom  167 type  1   force =     0.00026945   -0.00000006   -0.00006526
     atom  168 type  1   force =    -0.00025921    0.00000007    0.00006000
     atom  169 type  2   force =     0.00042924    0.00000137    0.00040446
     atom  170 type  2   force =    -0.00044056    0.00000150   -0.00040281
     atom  171 type  2   force =     0.00042925    0.00000136    0.00040421
     atom  172 type  2   force =    -0.00044060    0.00000149   -0.00040257
     atom  173 type  2   force =    -0.00035755   -0.00000007    0.00029259
     atom  174 type  2   force =     0.00036012    0.00000007   -0.00028647
     atom  175 type  2   force =    -0.00035767   -0.00000003    0.00029252
     atom  176 type  2   force =     0.00036027    0.00000012   -0.00028639
     atom  177 type  2   force =     0.00016284   -0.00000243    0.00011883
     atom  178 type  2   force =    -0.00014672   -0.00000272   -0.00012139
     atom  179 type  2   force =     0.00016284   -0.00000240    0.00011901
     atom  180 type  2   force =    -0.00014673   -0.00000268   -0.00012161
     atom  181 type  1   force =     0.00026147    0.00000117   -0.00005397
     atom  182 type  1   force =    -0.00025708    0.00000121    0.00004926
     atom  183 type  1   force =     0.00026144    0.00000117   -0.00005375
     atom  184 type  1   force =    -0.00025705    0.00000121    0.00004903
     atom  185 type  1   force =     0.00026938   -0.00000002   -0.00006549
     atom  186 type  1   force =    -0.00025914    0.00000011    0.00006024
     atom  187 type  1   force =     0.00026944   -0.00000005   -0.00006527
     atom  188 type  1   force =    -0.00025919    0.00000007    0.00006001
     atom  189 type  2   force =     0.00042925    0.00000138    0.00040445
     atom  190 type  2   force =    -0.00044056    0.00000151   -0.00040281
     atom  191 type  2   force =     0.00042927    0.00000135    0.00040420
     atom  192 type  2   force =    -0.00044061    0.00000148   -0.00040257
     atom  193 type  2   force =    -0.00035757   -0.00000005    0.00029260
     atom  194 type  2   force =     0.00036013    0.00000010   -0.00028649
     atom  195 type  2   force =    -0.00035766   -0.00000003    0.00029251
     atom  196 type  2   force =     0.00036026    0.00000012   -0.00028638
     atom  197 type  2   force =     0.00016283   -0.00000239    0.00011880
     atom  198 type  2   force =    -0.00014670   -0.00000267   -0.00012141
     atom  199 type  2   force =     0.00016286   -0.00000237    0.00011901
     atom  200 type  2   force =    -0.00014675   -0.00000265   -0.00012163
     The non-local contrib.  to forces
     atom    1 type  1   force =    -0.00276890    0.00004769    0.10672115
     atom    2 type  1   force =     0.00274351    0.00004342   -0.10672957
     atom    3 type  1   force =    -0.00276864    0.00004776    0.10672100
     atom    4 type  1   force =     0.00274327    0.00004344   -0.10672939
     atom    5 type  1   force =    -0.07668829    0.00001913    0.03939191
     atom    6 type  1   force =     0.07669148    0.00001767   -0.03934234
     atom    7 type  1   force =    -0.07668810    0.00001923    0.03939114
     atom    8 type  1   force =     0.07669126    0.00001768   -0.03934159
     atom    9 type  2   force =    -0.42753143    0.00003555   -0.11327316
     atom   10 type  2   force =     0.42724336    0.00003858    0.11334234
     atom   11 type  2   force =    -0.42753172    0.00003547   -0.11327449
     atom   12 type  2   force =     0.42724369    0.00003846    0.11334371
     atom   13 type  2   force =    -0.30287760    0.00002139   -0.16239207
     atom   14 type  2   force =     0.30279417    0.00002186    0.16225506
     atom   15 type  2   force =    -0.30287847    0.00002172   -0.16239067
     atom   16 type  2   force =     0.30279509    0.00002209    0.16225364
     atom   17 type  2   force =     0.05187343    0.00001544   -0.13709027
     atom   18 type  2   force =    -0.05179261    0.00001213    0.13724720
     atom   19 type  2   force =     0.05187297    0.00001556   -0.13708910
     atom   20 type  2   force =    -0.05179219    0.00001192    0.13724599
     atom   21 type  1   force =    -0.00276884    0.00004770    0.10672100
     atom   22 type  1   force =     0.00274345    0.00004344   -0.10672938
     atom   23 type  1   force =    -0.00276864    0.00004783    0.10672102
     atom   24 type  1   force =     0.00274329    0.00004350   -0.10672942
     atom   25 type  1   force =    -0.07668830    0.00001915    0.03939192
     atom   26 type  1   force =     0.07669149    0.00001767   -0.03934233
     atom   27 type  1   force =    -0.07668812    0.00001929    0.03939111
     atom   28 type  1   force =     0.07669127    0.00001775   -0.03934158
     atom   29 type  2   force =    -0.42753149    0.00003555   -0.11327319
     atom   30 type  2   force =     0.42724348    0.00003852    0.11334238
     atom   31 type  2   force =    -0.42753172    0.00003571   -0.11327450
     atom   32 type  2   force =     0.42724375    0.00003876    0.11334371
     atom   33 type  2   force =    -0.30287775    0.00002142   -0.16239200
     atom   34 type  2   force =     0.30279432    0.00002187    0.16225502
     atom   35 type  2   force =    -0.30287837    0.00002176   -0.16239082
[...]
     atom  167 type  1   force =     0.00000000    0.00000000    0.00000000
     atom  168 type  1   force =     0.00000000    0.00000000    0.00000000
     atom  169 type  2   force =     0.00000000    0.00000000    0.00000000
     atom  170 type  2   force =     0.00000000    0.00000000    0.00000000
     atom  171 type  2   force =     0.00000000    0.00000000    0.00000000
     atom  172 type  2   force =     0.00000000    0.00000000    0.00000000
     atom  173 type  2   force =     0.00000000    0.00000000    0.00000000
     atom  174 type  2   force =     0.00000000    0.00000000    0.00000000
     atom  175 type  2   force =     0.00000000    0.00000000    0.00000000
     atom  176 type  2   force =     0.00000000    0.00000000    0.00000000
     atom  177 type  2   force =     0.00000000    0.00000000    0.00000000
     atom  178 type  2   force =     0.00000000    0.00000000    0.00000000
     atom  179 type  2   force =     0.00000000    0.00000000    0.00000000
     atom  180 type  2   force =     0.00000000    0.00000000    0.00000000
     atom  181 type  1   force =     0.00000000    0.00000000    0.00000000
     atom  182 type  1   force =     0.00000000    0.00000000    0.00000000
     atom  183 type  1   force =     0.00000000    0.00000000    0.00000000
     atom  184 type  1   force =     0.00000000    0.00000000    0.00000000
     atom  185 type  1   force =     0.00000000    0.00000000    0.00000000
     atom  186 type  1   force =     0.00000000    0.00000000    0.00000000
     atom  187 type  1   force =     0.00000000    0.00000000    0.00000000
     atom  188 type  1   force =     0.00000000    0.00000000    0.00000000
     atom  189 type  2   force =     0.00000000    0.00000000    0.00000000
     atom  190 type  2   force =     0.00000000    0.00000000    0.00000000
     atom  191 type  2   force =     0.00000000    0.00000000    0.00000000
     atom  192 type  2   force =     0.00000000    0.00000000    0.00000000
     atom  193 type  2   force =     0.00000000    0.00000000    0.00000000
     atom  194 type  2   force =     0.00000000    0.00000000    0.00000000
     atom  195 type  2   force =     0.00000000    0.00000000    0.00000000
     atom  196 type  2   force =     0.00000000    0.00000000    0.00000000
     atom  197 type  2   force =     0.00000000    0.00000000    0.00000000
     atom  198 type  2   force =     0.00000000    0.00000000    0.00000000
     atom  199 type  2   force =     0.00000000    0.00000000    0.00000000
     atom  200 type  2   force =     0.00000000    0.00000000    0.00000000
     The SCF correction term to forces
     atom    1 type  1   force =     0.00000020   -0.00000002   -0.00000047
     atom    2 type  1   force =    -0.00000020    0.00000000    0.00000048
     atom    3 type  1   force =     0.00000018    0.00000000   -0.00000045
     atom    4 type  1   force =    -0.00000019    0.00000000    0.00000046
     atom    5 type  1   force =    -0.00000017   -0.00000001   -0.00000053
     atom    6 type  1   force =     0.00000014   -0.00000001    0.00000053
     atom    7 type  1   force =    -0.00000013   -0.00000000   -0.00000052
     atom    8 type  1   force =     0.00000016    0.00000000    0.00000055
     atom    9 type  2   force =    -0.00000136    0.00000001   -0.00000131
     atom   10 type  2   force =     0.00000130   -0.00000004    0.00000136
     atom   11 type  2   force =    -0.00000125   -0.00000003   -0.00000139
     atom   12 type  2   force =     0.00000127    0.00000002    0.00000138
     atom   13 type  2   force =    -0.00000300   -0.00000003   -0.00000168
     atom   14 type  2   force =     0.00000306   -0.00000003    0.00000171
     atom   15 type  2   force =    -0.00000308    0.00000000   -0.00000165
     atom   16 type  2   force =     0.00000306    0.00000002    0.00000168
     atom   17 type  2   force =     0.00000004   -0.00000006   -0.00000192
     atom   18 type  2   force =    -0.00000005   -0.00000000    0.00000195
     atom   19 type  2   force =    -0.00000001    0.00000000   -0.00000184
     atom   20 type  2   force =     0.00000001   -0.00000000    0.00000191
     atom   21 type  1   force =     0.00000020   -0.00000000   -0.00000046
     atom   22 type  1   force =    -0.00000021    0.00000001    0.00000049
     atom   23 type  1   force =     0.00000018    0.00000001   -0.00000043
     atom   24 type  1   force =    -0.00000019    0.00000005    0.00000047
     atom   25 type  1   force =    -0.00000016    0.00000000   -0.00000053
     atom   26 type  1   force =     0.00000015    0.00000001    0.00000053
     atom   27 type  1   force =    -0.00000012    0.00000000   -0.00000047
     atom   28 type  1   force =     0.00000017    0.00000002    0.00000055
     atom   29 type  2   force =    -0.00000138   -0.00000003   -0.00000126
     atom   30 type  2   force =     0.00000131    0.00000008    0.00000136
     atom   31 type  2   force =    -0.00000124    0.00000003   -0.00000134
     atom   32 type  2   force =     0.00000126    0.00000004    0.00000135
     atom   33 type  2   force =    -0.00000300   -0.00000002   -0.00000164
     atom   34 type  2   force =     0.00000305    0.00000002    0.00000173
     atom   35 type  2   force =    -0.00000312    0.00000002   -0.00000159
     atom   36 type  2   force =     0.00000303    0.00000008    0.00000169
     atom   37 type  2   force =     0.00000005    0.00000004   -0.00000187
     atom   38 type  2   force =    -0.00000005    0.00000003    0.00000197
     atom   39 type  2   force =    -0.00000003    0.00000002   -0.00000177
     atom   40 type  2   force =     0.00000007    0.00000010    0.00000197
     atom   41 type  1   force =     0.00000021    0.00000004   -0.00000043
     atom   42 type  1   force =    -0.00000021    0.00000001    0.00000048
     atom   43 type  1   force =     0.00000017   -0.00000000   -0.00000042
     atom   44 type  1   force =    -0.00000020    0.00000002    0.00000048
     atom   45 type  1   force =    -0.00000018    0.00000002   -0.00000050
     atom   46 type  1   force =     0.00000014    0.00000002    0.00000053
     atom   47 type  1   force =    -0.00000011    0.00000001   -0.00000048
     atom   48 type  1   force =     0.00000018    0.00000001    0.00000054
     atom   49 type  2   force =    -0.00000140    0.00000000   -0.00000121
     atom   50 type  2   force =     0.00000130    0.00000010    0.00000126
     atom   51 type  2   force =    -0.00000124    0.00000005   -0.00000123
     atom   52 type  2   force =     0.00000127    0.00000001    0.00000135
     atom   53 type  2   force =    -0.00000295    0.00000006   -0.00000158
     atom   54 type  2   force =     0.00000310    0.00000005    0.00000174
     atom   55 type  2   force =    -0.00000316    0.00000000   -0.00000153
     atom   56 type  2   force =     0.00000295    0.00000003    0.00000169
     atom   57 type  2   force =     0.00000002    0.00000010   -0.00000176
     atom   58 type  2   force =    -0.00000008    0.00000002    0.00000199
     atom   59 type  2   force =    -0.00000000    0.00000001   -0.00000175
     atom   60 type  2   force =     0.00000013    0.00000006    0.00000196
     atom   61 type  1   force =     0.00000022    0.00000002   -0.00000043
     atom   62 type  1   force =    -0.00000020    0.00000000    0.00000049
     atom   63 type  1   force =     0.00000017   -0.00000001   -0.00000042
     atom   64 type  1   force =    -0.00000021   -0.00000003    0.00000047
     atom   65 type  1   force =    -0.00000019    0.00000000   -0.00000048
     atom   66 type  1   force =     0.00000012   -0.00000000    0.00000054
     atom   67 type  1   force =    -0.00000012   -0.00000000   -0.00000051
     atom   68 type  1   force =     0.00000019   -0.00000001    0.00000053
     atom   69 type  2   force =    -0.00000137    0.00000002   -0.00000124
     atom   70 type  2   force =     0.00000128   -0.00000001    0.00000122
     atom   71 type  2   force =    -0.00000124    0.00000000   -0.00000122
     atom   72 type  2   force =     0.00000129   -0.00000004    0.00000134
     atom   73 type  2   force =    -0.00000291    0.00000003   -0.00000159
     atom   74 type  2   force =     0.00000312   -0.00000001    0.00000173
     atom   75 type  2   force =    -0.00000317   -0.00000001   -0.00000155
     atom   76 type  2   force =     0.00000294   -0.00000008    0.00000168
     atom   77 type  2   force =    -0.00000005    0.00000002   -0.00000173
     atom   78 type  2   force =    -0.00000008   -0.00000001    0.00000201
     atom   79 type  2   force =     0.00000000   -0.00000001   -0.00000177
     atom   80 type  2   force =     0.00000014   -0.00000005    0.00000191
     atom   81 type  1   force =     0.00000022   -0.00000003   -0.00000045
     atom   82 type  1   force =    -0.00000020   -0.00000002    0.00000048
     atom   83 type  1   force =     0.00000018   -0.00000000   -0.00000044
     atom   84 type  1   force =    -0.00000019   -0.00000005    0.00000046
     atom   85 type  1   force =    -0.00000019   -0.00000001   -0.00000050
     atom   86 type  1   force =     0.00000013   -0.00000002    0.00000052
     atom   87 type  1   force =    -0.00000012   -0.00000001   -0.00000051
     atom   88 type  1   force =     0.00000017   -0.00000002    0.00000054
     atom   89 type  2   force =    -0.00000135    0.00000001   -0.00000128
     atom   90 type  2   force =     0.00000129   -0.00000011    0.00000126
     atom   91 type  2   force =    -0.00000125   -0.00000005   -0.00000132
     atom   92 type  2   force =     0.00000130   -0.00000002    0.00000136
     atom   93 type  2   force =    -0.00000293   -0.00000002   -0.00000163
     atom   94 type  2   force =     0.00000311   -0.00000005    0.00000171
     atom   95 type  2   force =    -0.00000315   -0.00000002   -0.00000163
     atom   96 type  2   force =     0.00000302   -0.00000008    0.00000166
     atom   97 type  2   force =    -0.00000003   -0.00000009   -0.00000182
     atom   98 type  2   force =    -0.00000007   -0.00000004    0.00000197
     atom   99 type  2   force =     0.00000002   -0.00000002   -0.00000183
     atom  100 type  2   force =     0.00000005   -0.00000012    0.00000189
     atom  101 type  1   force =     0.00000020   -0.00000000   -0.00000046
     atom  102 type  1   force =    -0.00000018   -0.00000000    0.00000045
     atom  103 type  1   force =     0.00000019   -0.00000000   -0.00000049
     atom  104 type  1   force =    -0.00000022    0.00000000    0.00000046
     atom  105 type  1   force =    -0.00000016   -0.00000001   -0.00000054
     atom  106 type  1   force =     0.00000014   -0.00000000    0.00000053
     atom  107 type  1   force =    -0.00000015    0.00000000   -0.00000055
     atom  108 type  1   force =     0.00000017    0.00000000    0.00000053
     atom  109 type  2   force =    -0.00000129    0.00000001   -0.00000140
     atom  110 type  2   force =     0.00000124   -0.00000001    0.00000136
     atom  111 type  2   force =    -0.00000130    0.00000001   -0.00000132
     atom  112 type  2   force =     0.00000136   -0.00000005    0.00000136
     atom  113 type  2   force =    -0.00000303   -0.00000000   -0.00000169
     atom  114 type  2   force =     0.00000314   -0.00000001    0.00000169
     atom  115 type  2   force =    -0.00000306    0.00000000   -0.00000174
     atom  116 type  2   force =     0.00000295   -0.00000002    0.00000168
     atom  117 type  2   force =    -0.00000005   -0.00000002   -0.00000190
     atom  118 type  2   force =     0.00000000   -0.00000002    0.00000183
     atom  119 type  2   force =     0.00000004   -0.00000002   -0.00000198
     atom  120 type  2   force =     0.00000001    0.00000001    0.00000191
     atom  121 type  1   force =     0.00000020    0.00000000   -0.00000046
     atom  122 type  1   force =    -0.00000016   -0.00000003    0.00000044
     atom  123 type  1   force =     0.00000019    0.00000001   -0.00000051
     atom  124 type  1   force =    -0.00000022    0.00000000    0.00000046
     atom  125 type  1   force =    -0.00000017    0.00000001   -0.00000055
     atom  126 type  1   force =     0.00000013   -0.00000001    0.00000053
     atom  127 type  1   force =    -0.00000014    0.00000000   -0.00000056
     atom  128 type  1   force =     0.00000018   -0.00000000    0.00000051
     atom  129 type  2   force =    -0.00000129    0.00000002   -0.00000145
     atom  130 type  2   force =     0.00000125   -0.00000002    0.00000135
     atom  131 type  2   force =    -0.00000127    0.00000006   -0.00000135
     atom  132 type  2   force =     0.00000140   -0.00000004    0.00000138
     atom  133 type  2   force =    -0.00000302    0.00000001   -0.00000170
     atom  134 type  2   force =     0.00000318   -0.00000004    0.00000166
     atom  135 type  2   force =    -0.00000310    0.00000004   -0.00000181
     atom  136 type  2   force =     0.00000292   -0.00000001    0.00000165
     atom  137 type  2   force =    -0.00000006    0.00000002   -0.00000191
     atom  138 type  2   force =    -0.00000003   -0.00000005    0.00000179
     atom  139 type  2   force =     0.00000007    0.00000001   -0.00000206
     atom  140 type  2   force =     0.00000002    0.00000000    0.00000188
     atom  141 type  1   force =     0.00000021    0.00000000   -0.00000048
     atom  142 type  1   force =    -0.00000017    0.00000002    0.00000042
     atom  143 type  1   force =     0.00000020    0.00000002   -0.00000052
     atom  144 type  1   force =    -0.00000021   -0.00000001    0.00000045
     atom  145 type  1   force =    -0.00000018    0.00000001   -0.00000059
     atom  146 type  1   force =     0.00000012    0.00000001    0.00000052
     atom  147 type  1   force =    -0.00000014    0.00000001   -0.00000056
     atom  148 type  1   force =     0.00000018    0.00000000    0.00000054
     atom  149 type  2   force =    -0.00000131    0.00000006   -0.00000147
     atom  150 type  2   force =     0.00000123   -0.00000000    0.00000136
     atom  151 type  2   force =    -0.00000124    0.00000002   -0.00000141
     atom  152 type  2   force =     0.00000139    0.00000006    0.00000136
     atom  153 type  2   force =    -0.00000300    0.00000001   -0.00000174
     atom  154 type  2   force =     0.00000320    0.00000000    0.00000166
     atom  155 type  2   force =    -0.00000307    0.00000004   -0.00000186
     atom  156 type  2   force =     0.00000295    0.00000000    0.00000163
     atom  157 type  2   force =    -0.00000007    0.00000001   -0.00000197
     atom  158 type  2   force =    -0.00000003    0.00000004    0.00000172
     atom  159 type  2   force =     0.00000001    0.00000005   -0.00000205
     atom  160 type  2   force =     0.00000003   -0.00000001    0.00000184
     atom  161 type  1   force =     0.00000020   -0.00000000   -0.00000049
     atom  162 type  1   force =    -0.00000019    0.00000002    0.00000044
     atom  163 type  1   force =     0.00000019   -0.00000002   -0.00000050
     atom  164 type  1   force =    -0.00000021    0.00000001    0.00000045
     atom  165 type  1   force =    -0.00000017   -0.00000000   -0.00000060
     atom  166 type  1   force =     0.00000014    0.00000001    0.00000052
     atom  167 type  1   force =    -0.00000014   -0.00000001   -0.00000056
     atom  168 type  1   force =     0.00000018    0.00000001    0.00000056
     atom  169 type  2   force =    -0.00000132   -0.00000002   -0.00000145
     atom  170 type  2   force =     0.00000122    0.00000002    0.00000140
     atom  171 type  2   force =    -0.00000124   -0.00000003   -0.00000141
     atom  172 type  2   force =     0.00000138    0.00000001    0.00000135
     atom  173 type  2   force =    -0.00000301   -0.00000000   -0.00000175
     atom  174 type  2   force =     0.00000313    0.00000003    0.00000169
     atom  175 type  2   force =    -0.00000306   -0.00000004   -0.00000184
     atom  176 type  2   force =     0.00000298    0.00000002    0.00000163
     atom  177 type  2   force =    -0.00000006    0.00000000   -0.00000200
     atom  178 type  2   force =     0.00000002    0.00000003    0.00000173
     atom  179 type  2   force =    -0.00000000   -0.00000002   -0.00000198
     atom  180 type  2   force =     0.00000002    0.00000001    0.00000185
     atom  181 type  1   force =     0.00000020   -0.00000001   -0.00000047
     atom  182 type  1   force =    -0.00000018   -0.00000001    0.00000045
     atom  183 type  1   force =     0.00000020   -0.00000000   -0.00000048
     atom  184 type  1   force =    -0.00000021   -0.00000000    0.00000046
     atom  185 type  1   force =    -0.00000017   -0.00000001   -0.00000057
     atom  186 type  1   force =     0.00000013   -0.00000000    0.00000052
     atom  187 type  1   force =    -0.00000015   -0.00000001   -0.00000053
     atom  188 type  1   force =     0.00000017   -0.00000000    0.00000054
     atom  189 type  2   force =    -0.00000132   -0.00000006   -0.00000142
     atom  190 type  2   force =     0.00000121    0.00000002    0.00000138
     atom  191 type  2   force =    -0.00000129   -0.00000005   -0.00000134
     atom  192 type  2   force =     0.00000138    0.00000001    0.00000135
     atom  193 type  2   force =    -0.00000300   -0.00000001   -0.00000171
     atom  194 type  2   force =     0.00000314    0.00000002    0.00000170
     atom  195 type  2   force =    -0.00000310   -0.00000002   -0.00000175
     atom  196 type  2   force =     0.00000296    0.00000001    0.00000166
     atom  197 type  2   force =    -0.00000006   -0.00000001   -0.00000195
     atom  198 type  2   force =    -0.00000000   -0.00000002    0.00000180
     atom  199 type  2   force =     0.00000004   -0.00000001   -0.00000195
     atom  200 type  2   force =     0.00000002   -0.00000002    0.00000189

     Total force =     0.005465     Total SCF correction =     0.000028

     Writing all to output data dir ./scratch/theta-al2o3.save/
 
     init_run     :     17.68s CPU     12.77s WALL (       1 calls)
     electrons    :    214.42s CPU    132.14s WALL (       1 calls)
     forces       :      2.81s CPU      1.53s WALL (       1 calls)

     Called by init_run:
     wfcinit      :     15.50s CPU     10.91s WALL (       1 calls)
     potinit      :      0.93s CPU      0.48s WALL (       1 calls)
     hinit0       :      0.84s CPU      0.82s WALL (       1 calls)

     Called by electrons:
     c_bands      :    190.48s CPU    119.47s WALL (      12 calls)
     sum_band     :     21.64s CPU     11.18s WALL (      12 calls)
     v_of_rho     :      1.09s CPU      0.57s WALL (      13 calls)
     mix_rho      :      0.69s CPU      0.40s WALL (      12 calls)

     Called by c_bands:
     init_us_2    :      0.83s CPU      0.43s WALL (      52 calls)
     init_us_2:cp :      0.83s CPU      0.43s WALL (      52 calls)
     cegterg      :    177.14s CPU    106.84s WALL (      24 calls)

     Called by *egterg:
     cdiaghg      :      9.34s CPU      8.77s WALL (      76 calls)
     h_psi        :    115.62s CPU     59.72s WALL (      78 calls)
     g_psi        :      0.48s CPU      0.24s WALL (      52 calls)

     Called by h_psi:
     h_psi:calbec :     12.62s CPU      6.56s WALL (      78 calls)
     vloc_psi     :     91.09s CPU     46.67s WALL (      78 calls)
     add_vuspsi   :     10.92s CPU      5.86s WALL (      78 calls)

     General routines
     calbec       :     14.09s CPU      7.30s WALL (      86 calls)
     fft          :      1.20s CPU      0.85s WALL (     131 calls)
     ffts         :      0.08s CPU      0.05s WALL (      12 calls)
     fftw         :     98.52s CPU     50.49s WALL (   80134 calls)
 
     Parallel routines
 
     PWSCF        :   3m59.17s CPU   2m33.93s WALL

 
   This run was terminated on:   0:47:22  18May2024            

=------------------------------------------------------------------------------=
   JOB DONE.
=------------------------------------------------------------------------------=
