
     Program PWSCF v.7.2 starts on 31Jul2024 at 14: 5:32 

     This program is part of the open-source Quantum ESPRESSO suite
     for quantum simulation of materials; please cite
         "P. Giannozzi et al., J. Phys.:Condens. Matter 21 395502 (2009);
         "P. Giannozzi et al., J. Phys.:Condens. Matter 29 465901 (2017);
         "P. Giannozzi et al., J. Chem. Phys. 152 154105 (2020);
          URL http://www.quantum-espresso.org", 
     in publications or presentations arising from this work. More details at
     http://www.quantum-espresso.org/quote

     Parallel version (MPI), running on     6 processors

     MPI processes distributed on     1 nodes
     10289 MiB available memory on the printing compute node when the environment starts

     Waiting for input...
     Reading input from standard input

     Current dimensions of program PWSCF are:
     Max number of different atomic species (ntypx) = 10
     Max number of k-points (npk) =  40000
     Max angular momentum in pseudopotentials (lmaxx) =  4
     WARNING: atomic wfc #  6 for atom typeSn has zero norm
     Message from routine setup:
     the system is metallic, specify occupations

     R & G space division:  proc/nbgrp/npool/nimage =       6
     Subspace diagonalization in iterative solution of the eigenvalue problem:
     a serial algorithm will be used


     Parallelization info
     --------------------
     sticks:   dense  smooth     PW     G-vecs:    dense   smooth      PW
     Min        2123    2123    529               180125   180125   22507
     Max        2125    2125    531               180126   180126   22508
     Sum       12745   12745   3181              1080751  1080751  135043

     Using Slab Decomposition



     bravais-lattice index     =            1
     lattice parameter (alat)  =      20.0000  a.u.
     unit-cell volume          =    8000.0000 (a.u.)^3
     number of atoms/cell      =            2
     number of atomic types    =            2
     number of electrons       =        21.00 (up:  11.00, down:  10.00)
     number of Kohn-Sham states=           11
     kinetic-energy cutoff     =     100.0000  Ry
     charge density cutoff     =     400.0000  Ry
     scf convergence threshold =      1.0E-08
     mixing beta               =       0.7000
     number of iterations used =            8  plain     mixing
     Exchange-correlation=  SLA  PW   PBX  PBC
                           (   1   4   3   4   0   0   0)

     celldm(1)=  20.000000  celldm(2)=   0.000000  celldm(3)=   0.000000
     celldm(4)=   0.000000  celldm(5)=   0.000000  celldm(6)=   0.000000

     crystal axes: (cart. coord. in units of alat)
               a(1) = (   1.000000   0.000000   0.000000 )  
               a(2) = (   0.000000   1.000000   0.000000 )  
               a(3) = (   0.000000   0.000000   1.000000 )  

     reciprocal axes: (cart. coord. in units 2 pi/alat)
               b(1) = (  1.000000  0.000000  0.000000 )  
               b(2) = (  0.000000  1.000000  0.000000 )  
               b(3) = (  0.000000  0.000000  1.000000 )  


     PseudoPot. # 1 for F  read from file:
     ../pseudo/F_pbe-20080902.UPF
     MD5 check sum: c4eff971cdb459dd7b15ab7248b0a311
     Pseudo is Norm-conserving, Zval =  7.0
     Generated by new atomic code, or converted to UPF format
     Using radial grid of 1105 points,  1 beta functions with: 
                l(1) =   0

     PseudoPot. # 2 for Sn read from file:
     ../pseudo/Sn_pbe-20080909.UPF
     MD5 check sum: 331bf8e9df03a4b36b3be95da440fb59
     Pseudo is Norm-conserving, Zval = 14.0
     Generated by new atomic code, or converted to UPF format
     Using radial grid of 1243 points,  2 beta functions with: 
                l(1) =   1
                l(2) =   2

     atomic species   valence    mass     pseudopotential
        F              7.00     9.00000     F ( 1.00)
        Sn            14.00   118.71000     Sn( 1.00)

     Starting magnetic structure 
     atomic species   magnetization
        F            0.000
        Sn           0.000

      8 Sym. Ops. (no inversion) found


                                    s                        frac. trans.

      isym =  1     identity                                     

 cryst.   s( 1) = (     1          0          0      )
                  (     0          1          0      )
                  (     0          0          1      )

 cart.    s( 1) = (  1.0000000  0.0000000  0.0000000 )
                  (  0.0000000  1.0000000  0.0000000 )
                  (  0.0000000  0.0000000  1.0000000 )


      isym =  2     180 deg rotation - cart. axis [0,0,1]        

 cryst.   s( 2) = (    -1          0          0      )
                  (     0         -1          0      )
                  (     0          0          1      )

 cart.    s( 2) = ( -1.0000000  0.0000000  0.0000000 )
                  (  0.0000000 -1.0000000  0.0000000 )
                  (  0.0000000  0.0000000  1.0000000 )


      isym =  3      90 deg rotation - cart. axis [0,0,-1]       

 cryst.   s( 3) = (     0         -1          0      )
                  (     1          0          0      )
                  (     0          0          1      )

 cart.    s( 3) = (  0.0000000  1.0000000  0.0000000 )
                  ( -1.0000000  0.0000000  0.0000000 )
                  (  0.0000000  0.0000000  1.0000000 )


      isym =  4      90 deg rotation - cart. axis [0,0,1]        

 cryst.   s( 4) = (     0          1          0      )
                  (    -1          0          0      )
                  (     0          0          1      )

 cart.    s( 4) = (  0.0000000 -1.0000000  0.0000000 )
                  (  1.0000000  0.0000000  0.0000000 )
                  (  0.0000000  0.0000000  1.0000000 )


      isym =  5     inv. 180 deg rotation - cart. axis [0,1,0]   

 cryst.   s( 5) = (     1          0          0      )
                  (     0         -1          0      )
                  (     0          0          1      )

 cart.    s( 5) = (  1.0000000  0.0000000  0.0000000 )
                  (  0.0000000 -1.0000000  0.0000000 )
                  (  0.0000000  0.0000000  1.0000000 )


      isym =  6     inv. 180 deg rotation - cart. axis [1,0,0]   

 cryst.   s( 6) = (    -1          0          0      )
                  (     0          1          0      )
                  (     0          0          1      )

 cart.    s( 6) = ( -1.0000000  0.0000000  0.0000000 )
                  (  0.0000000  1.0000000  0.0000000 )
                  (  0.0000000  0.0000000  1.0000000 )


      isym =  7     inv. 180 deg rotation - cart. axis [1,1,0]   

 cryst.   s( 7) = (     0         -1          0      )
                  (    -1          0          0      )
                  (     0          0          1      )

 cart.    s( 7) = (  0.0000000 -1.0000000  0.0000000 )
                  ( -1.0000000  0.0000000  0.0000000 )
                  (  0.0000000  0.0000000  1.0000000 )


      isym =  8     inv. 180 deg rotation - cart. axis [1,-1,0]  

 cryst.   s( 8) = (     0          1          0      )
                  (     1          0          0      )
                  (     0          0          1      )

 cart.    s( 8) = (  0.0000000  1.0000000  0.0000000 )
                  (  1.0000000  0.0000000  0.0000000 )
                  (  0.0000000  0.0000000  1.0000000 )


     point group C_4v (4mm) 
     there are  5 classes
     the character table:

       E     2C4   C2    2s_v  2s_d 
A_1    1.00  1.00  1.00  1.00  1.00
A_2    1.00  1.00  1.00 -1.00 -1.00
B_1    1.00 -1.00  1.00  1.00 -1.00
B_2    1.00 -1.00  1.00 -1.00  1.00
E      2.00  0.00 -2.00  0.00  0.00

     the symmetry operations in each class and the name of the first element:

     E        1
          identity                                               
     2C4      3    4
           90 deg rotation - cart. axis [0,0,-1]                 
     C2       2
          180 deg rotation - cart. axis [0,0,1]                  
     2s_v     5    6
          inv. 180 deg rotation - cart. axis [0,1,0]             
     2s_d     7    8
          inv. 180 deg rotation - cart. axis [1,1,0]             

   Cartesian axes

     site n.     atom                  positions (alat units)
         1           F   tau(   1) = (   0.0000000   0.0000000  -0.0243435  )
         2           Sn  tau(   2) = (   0.0000000   0.0000000   0.1660730  )

   Crystallographic axes

     site n.     atom                  positions (cryst. coord.)
         1           F   tau(   1) = (  0.0000000  0.0000000 -0.0243435  )
         2           Sn  tau(   2) = (  0.0000000  0.0000000  0.1660730  )

     number of k points=     1
                       cart. coord. in units 2pi/alat
        k(    1) = (   0.0000000   0.0000000   0.0000000), wk =   1.0000000

                       cryst. coord.
        k(    1) = (   0.0000000   0.0000000   0.0000000), wk =   1.0000000

     Dense  grid:  1080751 G-vectors     FFT dimensions: ( 128, 128, 128)

     Dynamical RAM for                 wfc:       3.78 MB

     Dynamical RAM for     wfc (w. buffer):      11.34 MB

     Dynamical RAM for           str. fact:       5.50 MB

     Dynamical RAM for           local pot:       0.00 MB

     Dynamical RAM for          nlocal pot:       3.09 MB

     Dynamical RAM for                qrad:       0.46 MB

     Dynamical RAM for          rho,v,vnew:      32.99 MB

     Dynamical RAM for               rhoin:      11.00 MB

     Dynamical RAM for            rho*nmix:      87.95 MB

     Dynamical RAM for           G-vectors:      11.68 MB

     Dynamical RAM for          h,s,v(r/c):       0.02 MB

     Dynamical RAM for          <psi|beta>:       0.00 MB

     Dynamical RAM for                 psi:       7.56 MB

     Dynamical RAM for                hpsi:       7.56 MB

     Dynamical RAM for      wfcinit/wfcrot:      11.69 MB

     Estimated static dynamical RAM per process >     100.80 MB

     Estimated max dynamical RAM per process >     203.89 MB

     Estimated total dynamical RAM >       1.19 GB
     Generating pointlists ...
     new r_m :   0.0785 (alat units)  1.5709 (a.u.) for type    1
     new r_m :   0.0785 (alat units)  1.5709 (a.u.) for type    2

     Initial potential from superposition of free atoms

     starting charge      20.9986, renormalised to      21.0000

     negative rho (up, down):  1.302E-03 1.302E-03
     Starting wfcs are   17 randomized atomic wfcs

     total cpu time spent up to now is        2.8 secs

     Self-consistent Calculation

     iteration #  1     ecut=   100.00 Ry     beta= 0.70
     Davidson diagonalization with overlap

---- Real-time Memory Report at c_bands before calling an iterative solver
           172 MiB given to the printing process from OS
             0 MiB allocation reported by mallinfo(arena+hblkhd)
          9615 MiB available memory on the node where the printing process lives
------------------
     ethr =  1.00E-04,  avg # of iterations =  4.0

     negative rho (up, down):  2.819E-04 3.777E-04

     total cpu time spent up to now is        6.7 secs

     total energy              =    -184.01341930 Ry
     estimated scf accuracy    <       0.33877956 Ry

     total magnetization       =     1.00 Bohr mag/cell
     absolute magnetization    =     1.00 Bohr mag/cell

     iteration #  2     ecut=   100.00 Ry     beta= 0.70
     Davidson diagonalization with overlap

---- Real-time Memory Report at c_bands before calling an iterative solver
           242 MiB given to the printing process from OS
             0 MiB allocation reported by mallinfo(arena+hblkhd)
          8966 MiB available memory on the node where the printing process lives
------------------
     ethr =  1.61E-03,  avg # of iterations =  5.0

     negative rho (up, down):  1.963E-04 2.717E-04

     total cpu time spent up to now is       10.2 secs

     total energy              =    -183.73129837 Ry
     estimated scf accuracy    <       2.12416695 Ry

     total magnetization       =     1.00 Bohr mag/cell
     absolute magnetization    =     1.01 Bohr mag/cell

     iteration #  3     ecut=   100.00 Ry     beta= 0.70
     Davidson diagonalization with overlap

---- Real-time Memory Report at c_bands before calling an iterative solver
           253 MiB given to the printing process from OS
             0 MiB allocation reported by mallinfo(arena+hblkhd)
          8901 MiB available memory on the node where the printing process lives
------------------
     ethr =  1.61E-03,  avg # of iterations =  3.5

     negative rho (up, down):  6.114E-05 1.051E-04

     total cpu time spent up to now is       13.5 secs

     total energy              =    -184.18998554 Ry
     estimated scf accuracy    <       0.04506813 Ry

     total magnetization       =     1.00 Bohr mag/cell
     absolute magnetization    =     1.02 Bohr mag/cell

     iteration #  4     ecut=   100.00 Ry     beta= 0.70
     Davidson diagonalization with overlap

---- Real-time Memory Report at c_bands before calling an iterative solver
           264 MiB given to the printing process from OS
             0 MiB allocation reported by mallinfo(arena+hblkhd)
          8822 MiB available memory on the node where the printing process lives
------------------
     ethr =  2.15E-04,  avg # of iterations =  1.5

     negative rho (up, down):  1.346E-05 4.090E-05

     total cpu time spent up to now is       16.3 secs

     total energy              =    -184.17806673 Ry
     estimated scf accuracy    <       0.02625022 Ry

     total magnetization       =     1.00 Bohr mag/cell
     absolute magnetization    =     1.02 Bohr mag/cell

     iteration #  5     ecut=   100.00 Ry     beta= 0.70
     Davidson diagonalization with overlap

---- Real-time Memory Report at c_bands before calling an iterative solver
           275 MiB given to the printing process from OS
             0 MiB allocation reported by mallinfo(arena+hblkhd)
          8760 MiB available memory on the node where the printing process lives
------------------
     ethr =  1.25E-04,  avg # of iterations =  2.5

     negative rho (up, down):  6.820E-06 2.467E-05

     total cpu time spent up to now is       19.4 secs

     total energy              =    -184.18439015 Ry
     estimated scf accuracy    <       0.00044222 Ry

     total magnetization       =     1.00 Bohr mag/cell
     absolute magnetization    =     1.02 Bohr mag/cell

     iteration #  6     ecut=   100.00 Ry     beta= 0.70
     Davidson diagonalization with overlap

---- Real-time Memory Report at c_bands before calling an iterative solver
           286 MiB given to the printing process from OS
             0 MiB allocation reported by mallinfo(arena+hblkhd)
          8693 MiB available memory on the node where the printing process lives
------------------
     ethr =  2.11E-06,  avg # of iterations =  4.0

     negative rho (up, down):  3.276E-07 1.764E-06

     total cpu time spent up to now is       22.8 secs

     total energy              =    -184.18406822 Ry
     estimated scf accuracy    <       0.00124985 Ry

     total magnetization       =     1.00 Bohr mag/cell
     absolute magnetization    =     1.02 Bohr mag/cell

     iteration #  7     ecut=   100.00 Ry     beta= 0.70
     Davidson diagonalization with overlap

---- Real-time Memory Report at c_bands before calling an iterative solver
           297 MiB given to the printing process from OS
             0 MiB allocation reported by mallinfo(arena+hblkhd)
          8626 MiB available memory on the node where the printing process lives
------------------
     ethr =  2.11E-06,  avg # of iterations =  3.5

     total cpu time spent up to now is       26.2 secs

     total energy              =    -184.18430263 Ry
     estimated scf accuracy    <       0.00000222 Ry

     total magnetization       =     1.00 Bohr mag/cell
     absolute magnetization    =     1.02 Bohr mag/cell

     iteration #  8     ecut=   100.00 Ry     beta= 0.70
     Davidson diagonalization with overlap

---- Real-time Memory Report at c_bands before calling an iterative solver
           308 MiB given to the printing process from OS
             0 MiB allocation reported by mallinfo(arena+hblkhd)
          8565 MiB available memory on the node where the printing process lives
------------------
     ethr =  1.06E-08,  avg # of iterations =  5.5

     total cpu time spent up to now is       30.2 secs

     total energy              =    -184.18429928 Ry
     estimated scf accuracy    <       0.00001959 Ry

     total magnetization       =     1.00 Bohr mag/cell
     absolute magnetization    =     1.02 Bohr mag/cell

     iteration #  9     ecut=   100.00 Ry     beta= 0.70
     Davidson diagonalization with overlap

---- Real-time Memory Report at c_bands before calling an iterative solver
           319 MiB given to the printing process from OS
             0 MiB allocation reported by mallinfo(arena+hblkhd)
          8496 MiB available memory on the node where the printing process lives
------------------
     ethr =  1.06E-08,  avg # of iterations =  4.5

     total cpu time spent up to now is       33.8 secs

     total energy              =    -184.18430266 Ry
     estimated scf accuracy    <       0.00000002 Ry

     total magnetization       =     1.00 Bohr mag/cell
     absolute magnetization    =     1.02 Bohr mag/cell

     iteration # 10     ecut=   100.00 Ry     beta= 0.70
     Davidson diagonalization with overlap

---- Real-time Memory Report at c_bands before calling an iterative solver
           330 MiB given to the printing process from OS
             0 MiB allocation reported by mallinfo(arena+hblkhd)
          8427 MiB available memory on the node where the printing process lives
------------------
     ethr =  1.09E-10,  avg # of iterations =  4.0

     Magnetic moment per site  (integrated on atomic sphere of radius R)
     atom   1 (R=0.079)  charge=  6.4744  magn=  0.0278
     atom   2 (R=0.079)  charge=  9.5953  magn=  0.0656

     total cpu time spent up to now is       37.0 secs

     End of self-consistent calculation

 ------ SPIN UP ------------


          k = 0.0000 0.0000 0.0000 (135043 PWs)   bands (ev):

   -27.4363 -25.8508 -25.8502 -25.7600 -25.7600 -25.2593 -11.3255  -8.1368
    -8.1368  -7.9327  -3.6019

     occupation numbers 
     1.0000   1.0000   1.0000   1.0000   1.0000   1.0000   1.0000   1.0000
     1.0000   1.0000   1.0000

 ------ SPIN DOWN ----------


          k = 0.0000 0.0000 0.0000 (135043 PWs)   bands (ev):

   -27.3912 -25.7212 -25.7205 -25.6911 -25.6911 -25.1958 -10.8911  -8.0390
    -8.0390  -7.6617  -2.7143

     occupation numbers 
     1.0000   1.0000   1.0000   1.0000   1.0000   1.0000   1.0000   1.0000
     1.0000   1.0000   0.0000

     highest occupied, lowest unoccupied level (ev):    -3.6019   -2.7143

!    total energy              =    -184.18430268 Ry
     estimated scf accuracy    <          2.2E-09 Ry

     The total energy is the sum of the following terms:
     one-electron contribution =    -301.41074645 Ry
     hartree contribution      =     153.25821552 Ry
     xc contribution           =     -25.72005271 Ry
     ewald contribution        =     -10.31171903 Ry

     total magnetization       =     1.00 Bohr mag/cell
     absolute magnetization    =     1.02 Bohr mag/cell

     convergence has been achieved in  10 iterations

     Writing all to output data dir ./scratch/SnF.save/

     init_run     :      2.45s CPU      2.66s WALL (       1 calls)
     electrons    :     33.11s CPU     34.36s WALL (       1 calls)

     Called by init_run:
     wfcinit      :      0.98s CPU      1.01s WALL (       1 calls)
     wfcinit:atom :      0.02s CPU      0.02s WALL (       2 calls)
     wfcinit:wfcr :      0.92s CPU      0.95s WALL (       2 calls)
     potinit      :      0.90s CPU      1.03s WALL (       1 calls)
     hinit0       :      0.14s CPU      0.16s WALL (       1 calls)

     Called by electrons:
     c_bands      :     18.36s CPU     18.93s WALL (      10 calls)
     sum_band     :      4.60s CPU      4.84s WALL (      10 calls)
     v_of_rho     :      8.47s CPU      8.77s WALL (      11 calls)
     v_h          :      0.50s CPU      0.52s WALL (      11 calls)
     v_xc         :      7.97s CPU      8.24s WALL (      11 calls)
     mix_rho      :      2.15s CPU      2.28s WALL (      10 calls)

     Called by c_bands:
     init_us_2    :      0.15s CPU      0.15s WALL (      42 calls)
     init_us_2:cp :      0.15s CPU      0.15s WALL (      42 calls)
     cegterg      :     18.15s CPU     18.71s WALL (      20 calls)

     Called by sum_band:
     sum_band:wei :      0.00s CPU      0.00s WALL (      10 calls)
     sum_band:loo :      3.13s CPU      3.20s WALL (      10 calls)
     sum_band:buf :      0.04s CPU      0.04s WALL (      20 calls)
     sum_band:ini :      0.08s CPU      0.08s WALL (      20 calls)

     Called by *egterg:
     cdiaghg      :      0.02s CPU      0.02s WALL (      96 calls)
     cegterg:over :      0.70s CPU      0.70s WALL (      76 calls)
     cegterg:upda :      0.44s CPU      0.44s WALL (      76 calls)
     cegterg:last :      0.57s CPU      0.57s WALL (      44 calls)
     h_psi        :     16.95s CPU     17.53s WALL (      98 calls)
     g_psi        :      0.04s CPU      0.04s WALL (      76 calls)

     Called by h_psi:
     h_psi:calbec :      0.27s CPU      0.29s WALL (      98 calls)
     vloc_psi     :     16.30s CPU     16.87s WALL (      98 calls)
     add_vuspsi   :      0.21s CPU      0.21s WALL (      98 calls)

     General routines
     calbec       :      0.27s CPU      0.29s WALL (      98 calls)
     fft          :      5.90s CPU      6.19s WALL (     206 calls)
     ffts         :      0.51s CPU      0.54s WALL (      20 calls)
     fftw         :     15.68s CPU     16.20s WALL (    1562 calls)

     Parallel routines

     PWSCF        :     35.74s CPU     37.39s WALL


   This run was terminated on:  14: 6:10  31Jul2024            

=------------------------------------------------------------------------------=
   JOB DONE.
=------------------------------------------------------------------------------=
