
     Program PWSCF v.7.2 starts on 18May2024 at 12:34:53 

     This program is part of the open-source Quantum ESPRESSO suite
     for quantum simulation of materials; please cite
         "P. Giannozzi et al., J. Phys.:Condens. Matter 21 395502 (2009);
         "P. Giannozzi et al., J. Phys.:Condens. Matter 29 465901 (2017);
         "P. Giannozzi et al., J. Chem. Phys. 152 154105 (2020);
          URL http://www.quantum-espresso.org", 
     in publications or presentations arising from this work. More details at
     http://www.quantum-espresso.org/quote

     Parallel version (MPI & OpenMP), running on     720 processor cores
     Number of MPI processes:               360
     Threads/MPI process:                     2

     MPI processes distributed on    10 nodes
     185928 MiB available memory on the printing compute node when the environment starts
 
     Waiting for input...
     Reading input from standard input
Warning: card &CELL ignored
Warning: card / ignored

     Current dimensions of program PWSCF are:
     Max number of different atomic species (ntypx) = 10
     Max number of k-points (npk) =  40000
     Max angular momentum in pseudopotentials (lmaxx) =  4
     WARNING: atomic wfc #  3 for atom typeAl has zero norm
     WARNING: atomic wfc #  4 for atom typeAl has zero norm
 
     K-points division:     npool     =       6
     R & G space division:  proc/nbgrp/npool/nimage =      60
     Subspace diagonalization in iterative solution of the eigenvalue problem:
     one sub-group per band group will be used
     ELPA distributed-memory algorithm (size of sub-group:  7*  7 procs)

 
     Parallelization info
     --------------------
     sticks:   dense  smooth     PW     G-vecs:    dense   smooth      PW
     Min         106     106     28                 9348     9348    1324
     Max         107     107     29                 9353     9353    1333
     Sum        6379    6379   1735               560981   560981   79803
 
     Using Slab Decomposition
 

     Title: 
     Al2O3_Rc100.0                                                              


     bravais-lattice index     =            0
     lattice parameter (alat)  =       9.0423  a.u.
     unit-cell volume          =    7088.9782 (a.u.)^3
     number of atoms/cell      =          120
     number of atomic types    =            2
     number of electrons       =       576.00
     number of Kohn-Sham states=          289
     kinetic-energy cutoff     =      70.0000  Ry
     charge density cutoff     =     280.0000  Ry
     scf convergence threshold =      1.0E-09
     mixing beta               =       0.5000
     number of iterations used =            8  plain     mixing
     Exchange-correlation=  SLA  PW   PBX  PBC
                           (   1   4   3   4   0   0   0)

     celldm(1)=   9.042291  celldm(2)=   0.000000  celldm(3)=   0.000000
     celldm(4)=   0.000000  celldm(5)=   0.000000  celldm(6)=   0.000000

     crystal axes: (cart. coord. in units of alat)
               a(1) = (   1.004977  -1.740663   0.000002 )  
               a(2) = (   1.004973   1.740660   0.000000 )  
               a(3) = (   0.000002  -0.000001   2.740619 )  

     reciprocal axes: (cart. coord. in units 2 pi/alat)
               b(1) = (  0.497525 -0.287246 -0.000001 )  
               b(2) = (  0.497525  0.287248 -0.000000 )  
               b(3) = ( -0.000000  0.000000  0.364881 )  


     PseudoPot. # 1 for Al read from file:
     ./pseudo/Al.pbe-tm-gipaw-dc.UPF
     MD5 check sum: efdf9c81b1c08458edd46fe92d869955
     Pseudo is Norm-conserving, Zval =  3.0
     Generated by new atomic code, or converted to UPF format
     Using radial grid of 1519 points,  2 beta functions with: 
                l(1) =   0
                l(2) =   1

     PseudoPot. # 2 for O  read from file:
     ./pseudo/O.pbe-tm-new-gipaw-dc.UPF
     MD5 check sum: cd70c9dcf1f7d755502eb127a1501eea
     Pseudo is Norm-conserving, Zval =  6.0
     Generated by new atomic code, or converted to UPF format
     Using radial grid of 1469 points,  1 beta functions with: 
                l(1) =   0

     atomic species   valence    mass     pseudopotential
        Al             3.00    26.98000     Al( 1.00)
        O              6.00    16.00000     O ( 1.00)

     No symmetry found



   Cartesian axes

     site n.     atom                  positions (alat units)
         1           Al  tau(   1) = (   0.5003149   0.2863421   2.6758994  )
         2           Al  tau(   2) = (  -0.0021747  -0.0038046   2.3243424  )
         3           Al  tau(   3) = (  -0.0021946   0.5764140   2.2191733  )
         4           Al  tau(   4) = (   0.5002794   0.2863138   1.8675558  )
         5           Al  tau(   5) = (  -0.0022144  -0.0037787   1.7623983  )
         6           Al  tau(   6) = (  -0.0021746   0.5764522   1.4108559  )
         7           Al  tau(   7) = (   0.5003132   0.2863392   1.3055891  )
         8           Al  tau(   8) = (  -0.0021802  -0.0038045   0.9540366  )
         9           Al  tau(   9) = (  -0.0021741   0.5764005   0.8488902  )
        10           Al  tau(  10) = (   0.5002758   0.2863151   0.4972554  )
        11           Al  tau(  11) = (  -0.0021963  -0.0037930   0.3920952  )
        12           Al  tau(  12) = (  -0.0021734   0.5764485   0.0405313  )
        13           O   tau(  13) = (   0.3463482  -0.0272221   2.5002088  )
        14           O   tau(  14) = (  -0.1560136   0.3097020   2.5002660  )
        15           O   tau(  15) = (   0.3056253   0.5765095   2.5002505  )
        16           O   tau(  16) = (   0.6948379  -0.0038719   2.0432327  )
        17           O   tau(  17) = (  -0.3507292   0.5998479   2.0433394  )
        18           O   tau(  18) = (   0.1517298   0.2629138   2.0432447  )
        19           O   tau(  19) = (   0.3464119   0.5529121   1.5866700  )
        20           O   tau(  20) = (  -0.1967676   0.2863955   1.5867085  )
        21           O   tau(  21) = (   0.3462710   0.0196985   1.5866533  )
        22           O   tau(  22) = (   0.6542554  -0.0272790   1.1298062  )
        23           O   tau(  23) = (   0.1517762   0.3097607   1.1297354  )
        24           O   tau(  24) = (  -0.3100346   0.5764587   1.1297406  )
        25           O   tau(  25) = (  -0.1562676   0.2628522   0.6732045  )
        26           O   tau(  26) = (   0.3463927   0.5998986   0.6731636  )
        27           O   tau(  27) = (   0.3057868  -0.0038405   0.6731129  )
        28           O   tau(  28) = (   0.6543357   0.0197754   0.2161551  )
        29           O   tau(  29) = (   0.1923819   0.2862660   0.2162388  )
        30           O   tau(  30) = (  -0.3507892   0.5529912   0.2161666  )
        31           Al  tau(  31) = (   1.5052810   0.2863490   2.6759111  )
        32           Al  tau(  32) = (   1.0027901  -0.0037935   2.3243381  )
        33           Al  tau(  33) = (   1.0027746   0.5764329   2.2191805  )
        34           Al  tau(  34) = (   1.5052438   0.2863124   1.8675527  )
        35           Al  tau(  35) = (   1.0027505  -0.0037792   1.7623982  )
        36           Al  tau(  36) = (   1.0027937   0.5764703   1.4108595  )
        37           Al  tau(  37) = (   1.5052779   0.2863509   1.3055819  )
        38           Al  tau(  38) = (   1.0027861  -0.0037961   0.9540481  )
        39           Al  tau(  39) = (   1.0027855   0.5764120   0.8488977  )
        40           Al  tau(  40) = (   1.5052505   0.2863195   0.4972664  )
        41           Al  tau(  41) = (   1.0027775  -0.0037890   0.3921070  )
        42           Al  tau(  42) = (   1.0027867   0.5764592   0.0405416  )
        43           O   tau(  43) = (   1.3513047  -0.0272074   2.5002182  )
        44           O   tau(  44) = (   0.8489564   0.3097161   2.5002584  )
        45           O   tau(  45) = (   1.3105909   0.5765205   2.5002651  )
        46           O   tau(  46) = (   1.6998095  -0.0038680   2.0432343  )
        47           O   tau(  47) = (   0.6542443   0.5998606   2.0433374  )
        48           O   tau(  48) = (   1.1566917   0.2629331   2.0432416  )
        49           O   tau(  49) = (   1.3513860   0.5529254   1.5866642  )
        50           O   tau(  50) = (   0.8082050   0.2864014   1.5867122  )
        51           O   tau(  51) = (   1.3512310   0.0197167   1.5866482  )
        52           O   tau(  52) = (   1.6592235  -0.0272658   1.1297968  )
        53           O   tau(  53) = (   1.1567339   0.3097766   1.1297421  )
        54           O   tau(  54) = (   0.6949290   0.5764670   1.1297518  )
        55           O   tau(  55) = (   0.8486898   0.2628550   0.6732204  )
        56           O   tau(  56) = (   1.3513584   0.5998976   0.6731672  )
        57           O   tau(  57) = (   1.3107527  -0.0038244   0.6731279  )
        58           O   tau(  58) = (   1.6592940   0.0197765   0.2161705  )
        59           O   tau(  59) = (   1.1973491   0.2862800   0.2162536  )
        60           O   tau(  60) = (   0.6541752   0.5529907   0.2161695  )
        61           Al  tau(  61) = (  -0.0021524   1.1566791   2.6758960  )
        62           Al  tau(  62) = (  -0.5046575   0.8665176   2.3243480  )
        63           Al  tau(  63) = (  -0.5046771   1.4467374   2.2191767  )
        64           Al  tau(  64) = (  -0.0021879   1.1566496   1.8675522  )
        65           Al  tau(  65) = (  -0.5046862   0.8665502   1.7624082  )
        66           Al  tau(  66) = (  -0.5046526   1.4467790   1.4108443  )
        67           Al  tau(  67) = (  -0.0021587   1.1566635   1.3055819  )
        68           Al  tau(  68) = (  -0.5046647   0.8665298   0.9540250  )
        69           Al  tau(  69) = (  -0.5046553   1.4467348   0.8488787  )
        70           Al  tau(  70) = (  -0.0021918   1.1566381   0.4972472  )
        71           Al  tau(  71) = (  -0.5046703   0.8665360   0.3920832  )
        72           Al  tau(  72) = (  -0.5046451   1.4467780   0.0405383  )
        73           O   tau(  73) = (  -0.1561335   0.8431104   2.5002091  )
        74           O   tau(  74) = (  -0.6584762   1.1800312   2.5002739  )
        75           O   tau(  75) = (  -0.1968485   1.4468494   2.5002562  )
        76           O   tau(  76) = (   0.1923623   0.8664649   2.0432376  )
        77           O   tau(  77) = (  -0.8532090   1.4701809   2.0433348  )
        78           O   tau(  78) = (  -0.3507325   1.1332426   2.0432533  )
        79           O   tau(  79) = (  -0.1560629   1.4232395   1.5866573  )
        80           O   tau(  80) = (  -0.6992318   1.1567185   1.5867026  )
        81           O   tau(  81) = (  -0.1562009   0.8900321   1.5866652  )
        82           O   tau(  82) = (   0.1517706   0.8430452   1.1298033  )
        83           O   tau(  83) = (  -0.3506952   1.1800922   1.1297219  )
        84           O   tau(  84) = (  -0.8125115   1.4467757   1.1297250  )
        85           O   tau(  85) = (  -0.6587338   1.1331859   0.6731876  )
        86           O   tau(  86) = (  -0.1560885   1.4702204   0.6731602  )
        87           O   tau(  87) = (  -0.1966899   0.8664776   0.6730971  )
        88           O   tau(  88) = (   0.1518626   0.8901014   0.2161438  )
        89           O   tau(  89) = (  -0.3100805   1.1565921   0.2162322  )
        90           O   tau(  90) = (  -0.8532609   1.4233256   0.2161755  )
        91           Al  tau(  91) = (   1.0028139   1.1566861   2.6759075  )
        92           Al  tau(  92) = (   0.5003070   0.8665275   2.3243421  )
        93           Al  tau(  93) = (   0.5002914   1.4467552   2.2191827  )
        94           Al  tau(  94) = (   1.0027767   1.1566480   1.8675488  )
        95           Al  tau(  95) = (   0.5002786   0.8665494   1.7624064  )
        96           Al  tau(  96) = (   0.5003153   1.4467978   1.4108477  )
        97           Al  tau(  97) = (   1.0028056   1.1566748   1.3055741  )
        98           Al  tau(  98) = (   0.5003010   0.8665372   0.9540363  )
        99           Al  tau(  99) = (   0.5003034   1.4467458   0.8488859  )
       100           Al  tau( 100) = (   1.0027833   1.1566421   0.4972585  )
       101           Al  tau( 101) = (   0.5003029   0.8665400   0.3920946  )
       102           Al  tau( 102) = (   0.5003152   1.4467879   0.0405475  )
       103           O   tau( 103) = (   0.8488228   0.8431254   2.5002183  )
       104           O   tau( 104) = (   0.3464930   1.1800443   2.5002648  )
       105           O   tau( 105) = (   0.8081169   1.4468588   2.5002687  )
       106           O   tau( 106) = (   1.1973342   0.8664701   2.0432408  )
       107           O   tau( 107) = (   0.1517635   1.4701937   2.0433334  )
       108           O   tau( 108) = (   0.6542287   1.1332616   2.0432484  )
       109           O   tau( 109) = (   0.8489112   1.4232524   1.5866504  )
       110           O   tau( 110) = (   0.3057404   1.1567249   1.5867057  )
       111           O   tau( 111) = (   0.8487594   0.8900500   1.5866595  )
       112           O   tau( 112) = (   1.1567392   0.8430585   1.1297937  )
       113           O   tau( 113) = (   0.6542619   1.1801078   1.1297279  )
       114           O   tau( 114) = (   0.1924518   1.4467845   1.1297364  )
       115           O   tau( 115) = (   0.3462229   1.1331882   0.6732034  )
       116           O   tau( 116) = (   0.8488767   1.4702190   0.6731638  )
       117           O   tau( 117) = (   0.8082760   0.8664932   0.6731116  )
       118           O   tau( 118) = (   1.1568214   0.8901031   0.2161598  )
       119           O   tau( 119) = (   0.6948866   1.1566057   0.2162464  )
       120           O   tau( 120) = (   0.1517041   1.4233249   0.2161786  )

     number of k points=     8
                       cart. coord. in units 2pi/alat
        k(    1) = (   0.0000000   0.0000000   0.0000000), wk =   0.2500000
        k(    2) = (   0.0000002  -0.0000001  -0.1824405), wk =   0.2500000
        k(    3) = (  -0.2487626  -0.1436239   0.0000002), wk =   0.2500000
        k(    4) = (  -0.2487624  -0.1436239  -0.1824403), wk =   0.2500000
        k(    5) = (  -0.2487623   0.1436232   0.0000003), wk =   0.2500000
        k(    6) = (  -0.2487621   0.1436232  -0.1824403), wk =   0.2500000
        k(    7) = (  -0.4975249  -0.0000006   0.0000005), wk =   0.2500000
        k(    8) = (  -0.4975247  -0.0000007  -0.1824401), wk =   0.2500000

     Dense  grid:   560981 G-vectors     FFT dimensions: ( 100, 100, 135)

     Estimated max dynamical RAM per process >      85.81 MB

     Estimated total dynamical RAM >      29.50 GB

     Initial potential from superposition of free atoms

     starting charge     551.9887, renormalised to     576.0000
     Starting wfcs are 1008 randomized atomic wfcs

     total cpu time spent up to now is        6.9 secs

     Self-consistent Calculation

     iteration #  1     ecut=    70.00 Ry     beta= 0.50
     Davidson diagonalization with overlap
     ethr =  1.00E-02,  avg # of iterations =  2.0

     total cpu time spent up to now is       11.0 secs

     total energy              =   -2515.89713390 Ry
     estimated scf accuracy    <       7.49710982 Ry

     iteration #  2     ecut=    70.00 Ry     beta= 0.50
     Davidson diagonalization with overlap
     ethr =  1.30E-03,  avg # of iterations =  2.0

     total cpu time spent up to now is       15.6 secs

     total energy              =   -2517.92181826 Ry
     estimated scf accuracy    <       0.82742460 Ry

     iteration #  3     ecut=    70.00 Ry     beta= 0.50
     Davidson diagonalization with overlap
     ethr =  1.44E-04,  avg # of iterations =  1.6

     total cpu time spent up to now is       18.8 secs

     total energy              =   -2518.00403333 Ry
     estimated scf accuracy    <       0.14064468 Ry

     iteration #  4     ecut=    70.00 Ry     beta= 0.50
     Davidson diagonalization with overlap
     ethr =  2.44E-05,  avg # of iterations =  2.0

     total cpu time spent up to now is       23.3 secs

     total energy              =   -2518.01794680 Ry
     estimated scf accuracy    <       0.04288368 Ry

     iteration #  5     ecut=    70.00 Ry     beta= 0.50
     Davidson diagonalization with overlap
     ethr =  7.45E-06,  avg # of iterations =  2.0

     total cpu time spent up to now is       27.7 secs

     total energy              =   -2518.02440289 Ry
     estimated scf accuracy    <       0.00042801 Ry

     iteration #  6     ecut=    70.00 Ry     beta= 0.50
     Davidson diagonalization with overlap
     ethr =  7.43E-08,  avg # of iterations =  3.6

     total cpu time spent up to now is       33.0 secs

     total energy              =   -2518.02463917 Ry
     estimated scf accuracy    <       0.00030289 Ry

     iteration #  7     ecut=    70.00 Ry     beta= 0.50
     Davidson diagonalization with overlap
     ethr =  5.26E-08,  avg # of iterations =  2.0

     total cpu time spent up to now is       37.5 secs

     total energy              =   -2518.02468082 Ry
     estimated scf accuracy    <       0.00000422 Ry

     iteration #  8     ecut=    70.00 Ry     beta= 0.50
     Davidson diagonalization with overlap
     ethr =  7.32E-10,  avg # of iterations =  3.0

     total cpu time spent up to now is       42.6 secs

     total energy              =   -2518.02468301 Ry
     estimated scf accuracy    <       0.00000067 Ry

     iteration #  9     ecut=    70.00 Ry     beta= 0.50
     Davidson diagonalization with overlap
     ethr =  1.16E-10,  avg # of iterations =  2.0

     total cpu time spent up to now is       47.1 secs

     total energy              =   -2518.02468317 Ry
     estimated scf accuracy    <       0.00000003 Ry

     iteration # 10     ecut=    70.00 Ry     beta= 0.50
     Davidson diagonalization with overlap
     ethr =  5.13E-12,  avg # of iterations =  2.0

     total cpu time spent up to now is       50.6 secs

     total energy              =   -2518.02468317 Ry
     estimated scf accuracy    <          4.3E-09 Ry

     iteration # 11     ecut=    70.00 Ry     beta= 0.50
     Davidson diagonalization with overlap
     ethr =  7.41E-13,  avg # of iterations =  2.0

     total cpu time spent up to now is       55.2 secs

     End of self-consistent calculation

          k = 0.0000 0.0000 0.0000 ( 69941 PWs)   bands (ev):

   -11.5444 -11.0888 -11.0884 -10.5364 -10.5363 -10.5362 -10.5361 -10.5360
   -10.5359 -10.4134 -10.4134 -10.4134 -10.1774 -10.1773 -10.1773 -10.1767
   -10.1767 -10.1766  -9.9925  -9.9923  -9.7784  -9.7784  -9.7784  -9.5586
    -9.5586  -9.5586  -9.3916  -9.3916  -9.3915  -9.2943  -9.2531  -9.2531
    -9.2530  -9.2527  -9.2526  -9.2526  -9.1820  -9.1820  -9.1820  -9.1817
    -9.1817  -9.1817  -9.1445  -9.1445  -9.1445  -9.0326  -9.0325  -8.9675
    -8.9673  -8.9671  -8.9671  -8.8828  -8.8828  -8.8827  -8.8826  -8.8826
    -8.8826  -8.8079  -8.8079  -8.8076  -8.8076  -8.7896  -8.7896  -8.7895
    -8.7892  -8.7891  -8.7890  -8.7143  -8.7143  -8.6681  -8.6681  -8.6681
     0.7049   1.0887   1.0887   1.0888   1.0888   1.0888   1.0888   1.4373
     1.4374   1.4374   1.6083   1.6084   1.6084   1.6087   1.6087   1.6088
     1.6728   1.7122   1.7128   1.8678   1.8678   1.8679   2.0407   2.0407
     2.1484   2.1490   2.2221   2.2221   2.2222   2.2223   2.2223   2.2224
     2.3844   2.3856   2.5129   2.5133   2.5137   2.5139   2.5474   2.5475
     2.5475   2.5476   2.5477   2.5477   2.8534   2.8534   2.8534   2.9316
     2.9317   2.9317   3.1482   3.2728   3.2729   3.3647   3.3647   3.3648
     3.4836   3.4837   3.4837   3.4839   3.4839   3.4840   3.5928   3.5928
     3.5929   3.6756   3.6756   3.6758   3.6759   3.7685   3.7685   3.7685
     3.8371   3.8371   3.8372   3.8373   3.8373   3.8373   4.1090   4.1090
     4.1092   4.1092   4.1092   4.1093   4.2333   4.2817   4.2817   4.2818
     4.5261   4.5264   4.5329   4.7994   4.8003   4.8696   4.8696   4.8697
     4.8700   4.8701   4.8701   4.9674   4.9674   4.9674   5.0356   5.0357
     5.0362   5.0365   5.1781   5.1781   5.1781   5.1782   5.1783   5.1783
     5.1897   5.1897   5.1897   5.3752   5.3752   5.3753   5.3754   5.3756
     5.3756   5.4571   5.4571   5.4572   5.4573   5.4573   5.4574   5.7509
     5.7509   5.7509   5.8469   5.8475   5.9597   5.9597   5.9597   5.9691
     5.9692   5.9692   5.9695   5.9695   5.9695   6.0553   6.0553   6.1311
     6.1311   6.1311   6.1314   6.1314   6.1314   6.1323   6.1324   6.1324
     6.1380   6.1381   6.1386   6.1386   6.1893   6.1893   6.1894   6.1997
     6.1997   6.2541   6.2541   6.2544   6.2545   6.2548   6.2548   6.3705
     6.3705   6.3706   6.3706   6.3708   6.3708   6.4555   6.4555   6.4555
     6.5545   6.5545   6.5546   6.7446   6.7446   6.7446   6.7592   6.7593
     6.7593   6.7597   6.7597   6.7597   6.9573   6.9575   6.9578   6.9579
     6.9730   6.9731   7.0734   7.0734   7.0737   7.0739   7.0742   7.0742
     7.1481   7.1481   7.1481   7.1483   7.1483   7.1483   7.1971   7.1971
     7.1971   7.2529   7.2530   7.2530   7.2530   7.3943   7.3943   7.4420
    13.3669

          k = 0.0000-0.0000-0.1824 ( 70086 PWs)   bands (ev):

   -11.4269 -11.4268 -10.5795 -10.5768 -10.4896 -10.4895 -10.4895 -10.4891
   -10.4891 -10.4890 -10.4337 -10.4337 -10.4337 -10.4334 -10.4334 -10.4334
    -9.8194  -9.8193  -9.8193  -9.8193  -9.8193  -9.8192  -9.5876  -9.5875
    -9.5875  -9.5872  -9.5872  -9.5871  -9.4957  -9.4957  -9.3407  -9.3407
    -9.3406  -9.3405  -9.3404  -9.3404  -9.0414  -9.0414  -9.0414  -9.0404
    -9.0404  -9.0403  -9.0162  -9.0161  -9.0160  -9.0159  -8.9637  -8.9636
    -8.9636  -8.9631  -8.9631  -8.9629  -8.9132  -8.9132  -8.9132  -8.9130
    -8.9130  -8.9130  -8.8924  -8.8924  -8.8921  -8.8921  -8.7403  -8.7402
    -8.7402  -8.7401  -8.7099  -8.7099  -8.7099  -8.7097  -8.7097  -8.7097
     1.0727   1.0727   1.1663   1.1664   1.1664   1.1671   1.1672   1.1672
     1.2836   1.2837   1.2838   1.2841   1.2841   1.2842   1.6954   1.6955
     1.9790   1.9790   1.9835   1.9836   1.9836   1.9839   1.9840   1.9840
     2.1474   2.1475   2.1475   2.1477   2.3226   2.3227   2.3227   2.3229
     2.3229   2.3230   2.3788   2.3789   2.3789   2.3792   2.3792   2.3792
     2.7718   2.7718   2.7718   2.7719   2.7720   2.7720   2.8720   2.8721
     3.1297   3.1297   3.1315   3.1315   3.4494   3.4499   3.4765   3.4771
     3.4775   3.4780   3.4986   3.4986   3.4987   3.4988   3.4988   3.4989
     3.5624   3.5624   3.5625   3.5625   3.5625   3.5626   3.9402   3.9402
     3.9402   3.9403   3.9403   3.9404   3.9448   3.9448   3.9448   3.9468
     3.9468   3.9469   4.1345   4.1345   4.1345   4.1345   4.1345   4.1346
     4.3990   4.3990   4.6670   4.6671   4.6920   4.6922   4.6922   4.6925
     4.6926   4.6926   5.0886   5.0888   5.0888   5.0895   5.0896   5.0898
     5.2184   5.2184   5.2184   5.2188   5.2188   5.2189   5.2526   5.2527
     5.3085   5.3086   5.3086   5.3095   5.3095   5.3095   5.5026   5.5031
     5.5032   5.5033   5.5183   5.5183   5.5203   5.5203   5.7043   5.7043
     5.7043   5.7044   5.7044   5.7045   5.8274   5.8275   5.8275   5.8275
     5.8276   5.8276   5.9442   5.9443   5.9443   5.9452   5.9452   5.9452
     6.0819   6.0819   6.0819   6.0820   6.0821   6.0821   6.1458   6.1458
     6.1459   6.1462   6.1462   6.1462   6.2984   6.2984   6.2984   6.2985
     6.2985   6.2985   6.3246   6.3246   6.3247   6.3252   6.3252   6.3254
     6.3366   6.3366   6.3367   6.3370   6.5723   6.5723   6.5723   6.5727
     6.5727   6.5727   6.7159   6.7160   6.7160   6.7166   6.7166   6.7168
     6.8658   6.8659   6.8660   6.8665   6.8665   6.8667   6.8876   6.8876
     6.9776   6.9776   6.9778   6.9778   7.0728   7.0728   7.0736   7.0736
     7.1307   7.1308   7.1308   7.1309   7.1309   7.1310   7.1896   7.1896
     7.1896   7.1897   7.1897   7.1897   7.3755   7.3756   7.3756   7.3757
    13.8623

          k =-0.2488-0.1436 0.0000 ( 70170 PWs)   bands (ev):

   -11.2659 -11.2659 -10.8441 -10.8441 -10.8354 -10.8354 -10.7598 -10.7598
   -10.4166 -10.4166 -10.4162 -10.4162  -9.9931  -9.9931  -9.9925  -9.9925
    -9.9055  -9.9055  -9.8384  -9.8384  -9.8285  -9.8285  -9.5020  -9.5020
    -9.5017  -9.5017  -9.4673  -9.4672  -9.4147  -9.4147  -9.4127  -9.4127
    -9.3424  -9.3424  -9.3421  -9.3421  -9.2878  -9.2878  -9.2195  -9.2195
    -9.1436  -9.1436  -9.0760  -9.0760  -9.0583  -9.0583  -8.9985  -8.9985
    -8.9779  -8.9778  -8.9776  -8.9775  -8.9409  -8.9409  -8.9235  -8.9235
    -8.8610  -8.8610  -8.8583  -8.8583  -8.8244  -8.8243  -8.7814  -8.7814
    -8.6770  -8.6769  -8.6768  -8.6768  -8.6717  -8.6717  -8.6679  -8.6679
     0.9320   0.9320   1.3426   1.3426   1.3794   1.3794   1.5454   1.5454
     1.5472   1.5472   1.5624   1.5625   1.5627   1.5628   1.5632   1.5632
     1.7499   1.7499   1.7932   1.7933   1.8520   1.8520   1.8851   1.8851
     1.9711   1.9711   1.9717   1.9718   2.0001   2.0001   2.0775   2.0775
     2.0784   2.0784   2.2129   2.2129   2.4937   2.4937   2.5165   2.5165
     2.9047   2.9047   2.9054   2.9054   2.9516   2.9516   3.0105   3.0105
     3.0343   3.0343   3.0453   3.0454   3.1138   3.1139   3.1148   3.1148
     3.1378   3.1378   3.2638   3.2638   3.3543   3.3543   3.4039   3.4039
     3.4978   3.4978   3.5677   3.5678   3.5682   3.5682   3.8065   3.8065
     3.9903   3.9903   4.1302   4.1302   4.1304   4.1304   4.1622   4.1622
     4.2582   4.2582   4.4626   4.4626   4.4754   4.4755   4.4758   4.4758
     4.5955   4.5955   4.6197   4.6197   4.8602   4.8602   4.8610   4.8611
     4.9403   4.9403   4.9436   4.9436   5.0009   5.0009   5.0153   5.0153
     5.0563   5.0563   5.1555   5.1555   5.1994   5.1995   5.2723   5.2723
     5.2949   5.2949   5.3082   5.3083   5.3085   5.3086   5.4838   5.4838
     5.5404   5.5404   5.5847   5.5847   5.5935   5.5935   5.6921   5.6921
     5.6923   5.6924   5.7697   5.7697   5.8160   5.8160   5.8473   5.8473
     5.8668   5.8668   5.9066   5.9066   5.9664   5.9664   6.0115   6.0115
     6.0118   6.0118   6.0123   6.0123   6.0605   6.0605   6.0814   6.0814
     6.1332   6.1332   6.1471   6.1472   6.1588   6.1589   6.1593   6.1593
     6.2198   6.2198   6.3022   6.3022   6.3167   6.3167   6.3170   6.3170
     6.4956   6.4956   6.5362   6.5362   6.5374   6.5374   6.5572   6.5572
     6.5883   6.5883   6.6843   6.6843   6.7144   6.7144   6.7147   6.7147
     6.7461   6.7461   6.8748   6.8749   6.8834   6.8834   6.9376   6.9376
     6.9379   6.9380   6.9618   6.9619   7.0324   7.0324   7.0366   7.0366
     7.0466   7.0467   7.0592   7.0592   7.0629   7.0629   7.0633   7.0633
     7.1591   7.1591   7.2812   7.2812   7.3455   7.3455   7.3523   7.3523
    14.5257

          k =-0.2488-0.1436-0.1824 ( 70148 PWs)   bands (ev):

   -11.1570 -11.1570 -11.1539 -11.1538 -10.6677 -10.6677 -10.6676 -10.6676
   -10.3835 -10.3835 -10.3601 -10.3600 -10.1212 -10.1211 -10.1200 -10.1200
    -9.9115  -9.9115  -9.9113  -9.9112  -9.6281  -9.6281  -9.5846  -9.5846
    -9.5836  -9.5836  -9.4396  -9.4396  -9.4048  -9.4048  -9.2808  -9.2807
    -9.2797  -9.2796  -9.2423  -9.2423  -9.2402  -9.2401  -9.2391  -9.2390
    -9.2051  -9.2050  -9.1975  -9.1975  -9.0815  -9.0815  -9.0271  -9.0271
    -9.0023  -9.0023  -8.9878  -8.9878  -8.9878  -8.9877  -8.9237  -8.9236
    -8.7970  -8.7969  -8.7676  -8.7676  -8.7675  -8.7675  -8.7462  -8.7461
    -8.7460  -8.7459  -8.7065  -8.7065  -8.6941  -8.6941  -8.6874  -8.6874
     1.1431   1.1431   1.2448   1.2448   1.3849   1.3849   1.4814   1.4815
     1.4822   1.4822   1.5766   1.5767   1.5772   1.5772   1.5849   1.5849
     1.6128   1.6129   1.6146   1.6147   1.8228   1.8228   1.8228   1.8228
     1.9478   1.9478   1.9488   1.9488   2.0428   2.0428   2.1301   2.1301
     2.4844   2.4844   2.5262   2.5262   2.5272   2.5272   2.6157   2.6157
     2.6162   2.6162   2.6237   2.6237   2.7093   2.7093   2.7221   2.7221
     2.8423   2.8423   3.0091   3.0092   3.3422   3.3422   3.4030   3.4030
     3.4032   3.4032   3.4686   3.4687   3.4719   3.4719   3.4737   3.4737
     3.5472   3.5472   3.5487   3.5487   3.6777   3.6777   3.8243   3.8243
     3.9904   3.9904   4.0598   4.0599   4.0608   4.0608   4.2147   4.2148
     4.2162   4.2163   4.3235   4.3236   4.3581   4.3581   4.3874   4.3875
     4.4958   4.4958   4.4964   4.4964   4.5937   4.5937   4.6168   4.6168
     4.9274   4.9275   4.9742   4.9742   5.1568   5.1569   5.1576   5.1576
     5.2123   5.2123   5.2216   5.2216   5.2806   5.2807   5.3245   5.3245
     5.3261   5.3261   5.3418   5.3418   5.3563   5.3563   5.4613   5.4613
     5.4619   5.4619   5.5328   5.5328   5.5813   5.5813   5.5827   5.5827
     5.7645   5.7646   5.7650   5.7650   5.7705   5.7705   5.7840   5.7840
     5.8037   5.8037   5.8351   5.8351   6.0303   6.0304   6.0543   6.0543
     6.0547   6.0547   6.0781   6.0781   6.0987   6.0988   6.0992   6.0992
     6.1130   6.1131   6.1544   6.1544   6.1545   6.1546   6.1555   6.1556
     6.3132   6.3132   6.3147   6.3147   6.3986   6.3986   6.5010   6.5010
     6.5180   6.5180   6.5321   6.5323   6.5564   6.5564   6.5571   6.5571
     6.6373   6.6373   6.6379   6.6379   6.6622   6.6623   6.7573   6.7574
     6.7576   6.7576   6.7776   6.7776   6.8729   6.8730   6.8782   6.8782
     6.8872   6.8872   6.8983   6.8984   6.9126   6.9127   6.9130   6.9130
     7.1342   7.1343   7.1345   7.1345   7.1670   7.1671   7.1674   7.1674
     7.1888   7.1888   7.2173   7.2174   7.2719   7.2720   7.2810   7.2810
    14.8707

          k =-0.2488 0.1436 0.0000 ( 70170 PWs)   bands (ev):

   -11.2659 -11.2659 -10.8441 -10.8441 -10.8354 -10.8354 -10.7598 -10.7598
   -10.4166 -10.4166 -10.4162 -10.4162  -9.9929  -9.9929  -9.9927  -9.9927
    -9.9055  -9.9055  -9.8384  -9.8384  -9.8285  -9.8285  -9.5021  -9.5021
    -9.5016  -9.5016  -9.4673  -9.4673  -9.4147  -9.4147  -9.4127  -9.4127
    -9.3424  -9.3424  -9.3421  -9.3421  -9.2879  -9.2879  -9.2195  -9.2195
    -9.1437  -9.1437  -9.0760  -9.0760  -9.0583  -9.0583  -8.9985  -8.9985
    -8.9778  -8.9778  -8.9775  -8.9775  -8.9408  -8.9408  -8.9235  -8.9235
    -8.8611  -8.8611  -8.8583  -8.8583  -8.8244  -8.8244  -8.7814  -8.7814
    -8.6769  -8.6769  -8.6768  -8.6768  -8.6717  -8.6717  -8.6679  -8.6679
     0.9320   0.9320   1.3426   1.3426   1.3794   1.3794   1.5453   1.5453
     1.5471   1.5471   1.5626   1.5626   1.5628   1.5628   1.5631   1.5631
     1.7499   1.7499   1.7933   1.7933   1.8519   1.8519   1.8851   1.8851
     1.9711   1.9711   1.9718   1.9718   2.0001   2.0001   2.0775   2.0775
     2.0784   2.0784   2.2129   2.2129   2.4937   2.4937   2.5165   2.5165
     2.9047   2.9047   2.9054   2.9054   2.9516   2.9516   3.0105   3.0105
     3.0343   3.0343   3.0454   3.0454   3.1139   3.1139   3.1147   3.1147
     3.1378   3.1378   3.2638   3.2638   3.3543   3.3543   3.4039   3.4039
     3.4978   3.4978   3.5678   3.5678   3.5681   3.5681   3.8065   3.8065
     3.9903   3.9903   4.1302   4.1302   4.1304   4.1304   4.1621   4.1621
     4.2582   4.2582   4.4626   4.4626   4.4755   4.4755   4.4757   4.4757
     4.5954   4.5954   4.6197   4.6197   4.8602   4.8602   4.8610   4.8610
     4.9403   4.9403   4.9436   4.9436   5.0009   5.0009   5.0153   5.0153
     5.0563   5.0563   5.1555   5.1555   5.1994   5.1994   5.2723   5.2723
     5.2949   5.2949   5.3083   5.3083   5.3086   5.3086   5.4837   5.4837
     5.5404   5.5404   5.5848   5.5848   5.5935   5.5935   5.6921   5.6921
     5.6923   5.6923   5.7697   5.7697   5.8161   5.8161   5.8473   5.8473
     5.8668   5.8668   5.9065   5.9066   5.9664   5.9664   6.0115   6.0115
     6.0118   6.0118   6.0123   6.0123   6.0605   6.0605   6.0814   6.0814
     6.1333   6.1333   6.1472   6.1472   6.1589   6.1589   6.1593   6.1593
     6.2198   6.2198   6.3022   6.3022   6.3167   6.3167   6.3170   6.3170
     6.4956   6.4956   6.5362   6.5362   6.5375   6.5375   6.5572   6.5572
     6.5883   6.5883   6.6842   6.6842   6.7144   6.7144   6.7146   6.7146
     6.7461   6.7461   6.8749   6.8749   6.8835   6.8835   6.9376   6.9376
     6.9380   6.9380   6.9619   6.9619   7.0325   7.0325   7.0366   7.0366
     7.0466   7.0466   7.0591   7.0591   7.0629   7.0629   7.0633   7.0633
     7.1592   7.1592   7.2812   7.2812   7.3455   7.3455   7.3523   7.3523
    14.5257

          k =-0.2488 0.1436-0.1824 ( 70148 PWs)   bands (ev):

   -11.1570 -11.1570 -11.1539 -11.1539 -10.6677 -10.6677 -10.6676 -10.6676
   -10.3836 -10.3836 -10.3600 -10.3600 -10.1211 -10.1211 -10.1200 -10.1200
    -9.9116  -9.9116  -9.9112  -9.9112  -9.6281  -9.6281  -9.5846  -9.5846
    -9.5836  -9.5836  -9.4396  -9.4396  -9.4048  -9.4048  -9.2807  -9.2807
    -9.2796  -9.2796  -9.2424  -9.2424  -9.2401  -9.2401  -9.2390  -9.2390
    -9.2050  -9.2050  -9.1975  -9.1975  -9.0815  -9.0815  -9.0270  -9.0270
    -9.0024  -9.0024  -8.9878  -8.9878  -8.9878  -8.9878  -8.9237  -8.9236
    -8.7969  -8.7969  -8.7676  -8.7676  -8.7675  -8.7675  -8.7462  -8.7462
    -8.7459  -8.7459  -8.7065  -8.7065  -8.6941  -8.6941  -8.6874  -8.6874
     1.1431   1.1431   1.2447   1.2447   1.3848   1.3848   1.4814   1.4814
     1.4822   1.4822   1.5766   1.5766   1.5772   1.5772   1.5850   1.5850
     1.6128   1.6128   1.6146   1.6147   1.8228   1.8228   1.8229   1.8229
     1.9478   1.9478   1.9488   1.9488   2.0428   2.0428   2.1301   2.1301
     2.4844   2.4844   2.5262   2.5262   2.5272   2.5272   2.6156   2.6156
     2.6162   2.6162   2.6237   2.6237   2.7094   2.7094   2.7221   2.7221
     2.8423   2.8423   3.0092   3.0092   3.3422   3.3422   3.4029   3.4029
     3.4032   3.4032   3.4687   3.4687   3.4719   3.4719   3.4736   3.4736
     3.5472   3.5472   3.5487   3.5487   3.6776   3.6776   3.8243   3.8243
     3.9904   3.9904   4.0598   4.0598   4.0608   4.0608   4.2147   4.2147
     4.2163   4.2163   4.3235   4.3235   4.3581   4.3581   4.3874   4.3874
     4.4958   4.4958   4.4964   4.4964   4.5937   4.5937   4.6167   4.6167
     4.9275   4.9275   4.9742   4.9742   5.1568   5.1568   5.1576   5.1576
     5.2123   5.2123   5.2216   5.2216   5.2806   5.2806   5.3245   5.3245
     5.3260   5.3260   5.3418   5.3418   5.3563   5.3563   5.4612   5.4612
     5.4620   5.4620   5.5329   5.5329   5.5813   5.5813   5.5827   5.5827
     5.7645   5.7645   5.7651   5.7651   5.7705   5.7705   5.7840   5.7840
     5.8037   5.8037   5.8351   5.8351   6.0304   6.0304   6.0543   6.0543
     6.0546   6.0546   6.0781   6.0781   6.0987   6.0987   6.0992   6.0992
     6.1131   6.1131   6.1544   6.1544   6.1546   6.1546   6.1556   6.1556
     6.3133   6.3133   6.3147   6.3147   6.3986   6.3986   6.5010   6.5010
     6.5179   6.5179   6.5322   6.5322   6.5563   6.5563   6.5572   6.5572
     6.6373   6.6373   6.6379   6.6379   6.6623   6.6623   6.7573   6.7573
     6.7577   6.7577   6.7775   6.7775   6.8730   6.8730   6.8783   6.8783
     6.8873   6.8873   6.8983   6.8983   6.9127   6.9127   6.9130   6.9130
     7.1343   7.1343   7.1345   7.1345   7.1670   7.1670   7.1674   7.1674
     7.1888   7.1888   7.2173   7.2173   7.2719   7.2719   7.2809   7.2809
    14.8698

          k =-0.4975-0.0000 0.0000 ( 70170 PWs)   bands (ev):

   -11.2659 -11.2659 -10.8441 -10.8441 -10.8354 -10.8354 -10.7598 -10.7598
   -10.4166 -10.4165 -10.4162 -10.4162  -9.9931  -9.9931  -9.9925  -9.9925
    -9.9055  -9.9055  -9.8384  -9.8384  -9.8285  -9.8285  -9.5021  -9.5021
    -9.5017  -9.5016  -9.4673  -9.4672  -9.4147  -9.4147  -9.4127  -9.4127
    -9.3424  -9.3423  -9.3421  -9.3421  -9.2879  -9.2878  -9.2195  -9.2195
    -9.1436  -9.1436  -9.0760  -9.0760  -9.0583  -9.0583  -8.9985  -8.9985
    -8.9778  -8.9777  -8.9776  -8.9776  -8.9409  -8.9409  -8.9235  -8.9235
    -8.8610  -8.8610  -8.8583  -8.8583  -8.8244  -8.8243  -8.7814  -8.7814
    -8.6770  -8.6769  -8.6768  -8.6768  -8.6717  -8.6717  -8.6679  -8.6679
     0.9320   0.9320   1.3426   1.3426   1.3794   1.3794   1.5454   1.5454
     1.5472   1.5472   1.5625   1.5625   1.5627   1.5628   1.5632   1.5632
     1.7499   1.7499   1.7932   1.7933   1.8520   1.8520   1.8852   1.8852
     1.9712   1.9712   1.9716   1.9717   2.0001   2.0001   2.0775   2.0775
     2.0784   2.0784   2.2129   2.2129   2.4937   2.4937   2.5165   2.5165
     2.9047   2.9047   2.9054   2.9054   2.9515   2.9515   3.0105   3.0105
     3.0343   3.0343   3.0453   3.0454   3.1139   3.1139   3.1148   3.1148
     3.1378   3.1378   3.2638   3.2638   3.3543   3.3543   3.4039   3.4039
     3.4978   3.4978   3.5677   3.5677   3.5682   3.5682   3.8065   3.8065
     3.9903   3.9903   4.1302   4.1302   4.1303   4.1304   4.1621   4.1622
     4.2582   4.2582   4.4626   4.4626   4.4754   4.4755   4.4758   4.4758
     4.5955   4.5955   4.6196   4.6197   4.8602   4.8603   4.8610   4.8610
     4.9402   4.9402   4.9435   4.9436   5.0008   5.0008   5.0153   5.0153
     5.0564   5.0564   5.1555   5.1555   5.1995   5.1995   5.2722   5.2723
     5.2949   5.2949   5.3082   5.3083   5.3085   5.3086   5.4838   5.4838
     5.5405   5.5405   5.5847   5.5847   5.5935   5.5935   5.6921   5.6921
     5.6924   5.6924   5.7697   5.7697   5.8160   5.8161   5.8473   5.8473
     5.8668   5.8668   5.9066   5.9066   5.9664   5.9664   6.0114   6.0115
     6.0118   6.0118   6.0123   6.0123   6.0605   6.0605   6.0814   6.0814
     6.1332   6.1332   6.1471   6.1471   6.1589   6.1589   6.1593   6.1593
     6.2198   6.2198   6.3022   6.3022   6.3167   6.3167   6.3170   6.3170
     6.4956   6.4956   6.5362   6.5362   6.5374   6.5375   6.5572   6.5572
     6.5883   6.5883   6.6843   6.6843   6.7144   6.7144   6.7147   6.7147
     6.7461   6.7461   6.8748   6.8749   6.8834   6.8834   6.9375   6.9376
     6.9380   6.9380   6.9618   6.9619   7.0324   7.0324   7.0365   7.0365
     7.0466   7.0466   7.0592   7.0592   7.0630   7.0630   7.0632   7.0632
     7.1591   7.1591   7.2812   7.2812   7.3455   7.3455   7.3523   7.3523
    14.5257

          k =-0.4975-0.0000-0.1824 ( 70148 PWs)   bands (ev):

   -11.1570 -11.1570 -11.1539 -11.1538 -10.6677 -10.6677 -10.6676 -10.6676
   -10.3836 -10.3835 -10.3601 -10.3600 -10.1211 -10.1211 -10.1200 -10.1200
    -9.9115  -9.9115  -9.9112  -9.9112  -9.6281  -9.6281  -9.5846  -9.5846
    -9.5836  -9.5836  -9.4396  -9.4396  -9.4048  -9.4048  -9.2808  -9.2807
    -9.2797  -9.2796  -9.2423  -9.2423  -9.2401  -9.2401  -9.2391  -9.2390
    -9.2051  -9.2050  -9.1975  -9.1975  -9.0816  -9.0816  -9.0271  -9.0270
    -9.0023  -9.0023  -8.9878  -8.9878  -8.9878  -8.9878  -8.9237  -8.9236
    -8.7970  -8.7969  -8.7676  -8.7676  -8.7675  -8.7675  -8.7462  -8.7462
    -8.7459  -8.7459  -8.7065  -8.7065  -8.6941  -8.6941  -8.6874  -8.6874
     1.1431   1.1431   1.2448   1.2448   1.3849   1.3849   1.4814   1.4814
     1.4822   1.4822   1.5767   1.5767   1.5772   1.5772   1.5849   1.5849
     1.6128   1.6129   1.6146   1.6147   1.8228   1.8228   1.8228   1.8229
     1.9478   1.9479   1.9488   1.9488   2.0428   2.0428   2.1301   2.1301
     2.4844   2.4844   2.5262   2.5262   2.5272   2.5272   2.6157   2.6157
     2.6162   2.6162   2.6237   2.6237   2.7093   2.7093   2.7221   2.7221
     2.8423   2.8423   3.0091   3.0092   3.3422   3.3422   3.4030   3.4030
     3.4032   3.4032   3.4686   3.4687   3.4719   3.4719   3.4737   3.4737
     3.5472   3.5472   3.5487   3.5487   3.6776   3.6777   3.8243   3.8243
     3.9903   3.9904   4.0599   4.0599   4.0608   4.0608   4.2147   4.2148
     4.2162   4.2163   4.3235   4.3236   4.3581   4.3581   4.3874   4.3875
     4.4958   4.4958   4.4964   4.4964   4.5937   4.5937   4.6167   4.6168
     4.9274   4.9275   4.9742   4.9742   5.1568   5.1568   5.1576   5.1577
     5.2123   5.2123   5.2216   5.2217   5.2806   5.2807   5.3245   5.3245
     5.3260   5.3260   5.3418   5.3418   5.3562   5.3563   5.4613   5.4613
     5.4619   5.4619   5.5329   5.5329   5.5813   5.5813   5.5827   5.5827
     5.7645   5.7646   5.7650   5.7651   5.7705   5.7706   5.7840   5.7840
     5.8037   5.8037   5.8351   5.8351   6.0303   6.0303   6.0543   6.0543
     6.0547   6.0547   6.0781   6.0781   6.0988   6.0988   6.0992   6.0992
     6.1130   6.1131   6.1544   6.1544   6.1545   6.1546   6.1555   6.1556
     6.3133   6.3133   6.3147   6.3147   6.3986   6.3986   6.5010   6.5010
     6.5180   6.5180   6.5321   6.5323   6.5564   6.5564   6.5571   6.5572
     6.6374   6.6374   6.6379   6.6379   6.6622   6.6623   6.7573   6.7573
     6.7576   6.7576   6.7776   6.7776   6.8729   6.8730   6.8782   6.8782
     6.8872   6.8873   6.8983   6.8984   6.9127   6.9127   6.9129   6.9130
     7.1342   7.1343   7.1345   7.1345   7.1671   7.1671   7.1674   7.1674
     7.1888   7.1888   7.2173   7.2173   7.2719   7.2719   7.2809   7.2809
    14.8705

     highest occupied, lowest unoccupied level (ev):     7.4420   13.3669

!    total energy              =   -2518.02468318 Ry
     estimated scf accuracy    <          6.7E-10 Ry

     The total energy is the sum of the following terms:
     one-electron contribution =    -477.06716001 Ry
     hartree contribution      =     654.59442697 Ry
     xc contribution           =    -601.25753852 Ry
     ewald contribution        =   -2094.29441162 Ry

     convergence has been achieved in  11 iterations

     Forces acting on atoms (cartesian axes, Ry/au):

     atom    1 type  1   force =     0.00001042    0.00000323    0.00071458
     atom    2 type  1   force =    -0.00000560    0.00000085   -0.00060756
     atom    3 type  1   force =     0.00000393    0.00000267    0.00063745
     atom    4 type  1   force =     0.00000071    0.00000328   -0.00068844
     atom    5 type  1   force =     0.00000770   -0.00000596    0.00067330
     atom    6 type  1   force =    -0.00000055    0.00000331   -0.00065348
     atom    7 type  1   force =     0.00000062   -0.00000087    0.00064090
     atom    8 type  1   force =    -0.00000157   -0.00000935   -0.00067496
     atom    9 type  1   force =    -0.00001411    0.00000391    0.00067338
     atom   10 type  1   force =     0.00000667   -0.00000217   -0.00062825
     atom   11 type  1   force =    -0.00000375    0.00000350    0.00060374
     atom   12 type  1   force =     0.00000651    0.00000819   -0.00070721
     atom   13 type  2   force =     0.00001849   -0.00001894    0.00001800
     atom   14 type  2   force =     0.00001509    0.00003534   -0.00000722
     atom   15 type  2   force =    -0.00004236    0.00000141    0.00001809
     atom   16 type  2   force =     0.00003585    0.00001465   -0.00000243
     atom   17 type  2   force =    -0.00002473    0.00002601   -0.00000765
     atom   18 type  2   force =     0.00000404   -0.00003314   -0.00000145
     atom   19 type  2   force =     0.00002389   -0.00004685    0.00001399
     atom   20 type  2   force =    -0.00002588    0.00000118    0.00001653
     atom   21 type  2   force =     0.00002282    0.00002557    0.00003782
     atom   22 type  2   force =    -0.00001450   -0.00004375   -0.00002011
     atom   23 type  2   force =    -0.00002488    0.00002813   -0.00003185
     atom   24 type  2   force =     0.00003500    0.00000641   -0.00002723
     atom   25 type  2   force =     0.00001306   -0.00002023   -0.00000163
     atom   26 type  2   force =     0.00001295    0.00002681    0.00000633
     atom   27 type  2   force =    -0.00002747    0.00000489    0.00001193
     atom   28 type  2   force =    -0.00004147    0.00002058    0.00000387
     atom   29 type  2   force =     0.00004030    0.00002585    0.00000406
     atom   30 type  2   force =    -0.00000519   -0.00003609   -0.00000604
     atom   31 type  1   force =     0.00002152    0.00000171    0.00070712
     atom   32 type  1   force =     0.00000621   -0.00000405   -0.00060300
     atom   33 type  1   force =     0.00000672   -0.00001073    0.00063129
     atom   34 type  1   force =     0.00001136    0.00000339   -0.00068452
     atom   35 type  1   force =     0.00001736   -0.00000557    0.00067504
     atom   36 type  1   force =     0.00000299   -0.00000956   -0.00065616
     atom   37 type  1   force =     0.00001254   -0.00000681    0.00064829
     atom   38 type  1   force =     0.00000854   -0.00001181   -0.00068174
     atom   39 type  1   force =    -0.00000175   -0.00000846    0.00067055
     atom   40 type  1   force =     0.00001221   -0.00000683   -0.00063709
     atom   41 type  1   force =     0.00000240   -0.00000008    0.00059343
     atom   42 type  1   force =     0.00001814   -0.00000346   -0.00071227
     atom   43 type  2   force =     0.00003848   -0.00002943    0.00001258
     atom   44 type  2   force =     0.00002070    0.00002399    0.00000226
     atom   45 type  2   force =    -0.00003098   -0.00000447    0.00001112
     atom   46 type  2   force =     0.00004436    0.00001048   -0.00000254
     atom   47 type  2   force =    -0.00001745    0.00001575   -0.00000997
     atom   48 type  2   force =     0.00001708   -0.00005439    0.00000229
     atom   49 type  2   force =     0.00002919   -0.00005728    0.00001509
     atom   50 type  2   force =    -0.00001864   -0.00000457    0.00001515
     atom   51 type  2   force =     0.00003697    0.00000589    0.00004380
     atom   52 type  2   force =    -0.00000721   -0.00005462   -0.00000922
     atom   53 type  2   force =    -0.00000574    0.00001696   -0.00003525
     atom   54 type  2   force =     0.00004797    0.00000313   -0.00003035
     atom   55 type  2   force =     0.00002759   -0.00002388   -0.00001548
     atom   56 type  2   force =     0.00002916    0.00003104    0.00000688
     atom   57 type  2   force =    -0.00002363   -0.00000783    0.00000167
     atom   58 type  2   force =    -0.00002765    0.00001934   -0.00000974
     atom   59 type  2   force =     0.00004215    0.00001524   -0.00000648
     atom   60 type  2   force =     0.00001256   -0.00003314   -0.00000372
     atom   61 type  1   force =    -0.00000299   -0.00000158    0.00071767
     atom   62 type  1   force =    -0.00001111    0.00001072   -0.00061225
     atom   63 type  1   force =    -0.00000090    0.00001122    0.00063289
     atom   64 type  1   force =    -0.00001292   -0.00000074   -0.00068521
     atom   65 type  1   force =    -0.00000351    0.00000080    0.00066461
     atom   66 type  1   force =    -0.00000609    0.00001215   -0.00064650
     atom   67 type  1   force =    -0.00001426    0.00000408    0.00064431
     atom   68 type  1   force =    -0.00000757   -0.00000671   -0.00066501
     atom   69 type  1   force =    -0.00002206    0.00000644    0.00068319
     atom   70 type  1   force =    -0.00001145    0.00000397   -0.00062471
     atom   71 type  1   force =    -0.00001229    0.00001138    0.00061197
     atom   72 type  1   force =    -0.00000472    0.00001519   -0.00071396
     atom   73 type  2   force =     0.00001072   -0.00001560    0.00001647
     atom   74 type  2   force =    -0.00001066    0.00003762   -0.00001465
     atom   75 type  2   force =    -0.00005653   -0.00000013    0.00001683
     atom   76 type  2   force =     0.00002378    0.00001596   -0.00000124
     atom   77 type  2   force =    -0.00003499    0.00002921   -0.00000452
     atom   78 type  2   force =    -0.00002173   -0.00003132   -0.00001013
     atom   79 type  2   force =     0.00001389   -0.00003818    0.00001942
     atom   80 type  2   force =    -0.00004634    0.00001376    0.00001998
     atom   81 type  2   force =     0.00000977    0.00002572    0.00002571
     atom   82 type  2   force =    -0.00001847   -0.00002829   -0.00002139
     atom   83 type  2   force =    -0.00003523    0.00002527   -0.00002187
     atom   84 type  2   force =     0.00002555    0.00001839   -0.00001263
     atom   85 type  2   force =    -0.00000178   -0.00002418    0.00001049
     atom   86 type  2   force =     0.00000653    0.00004530    0.00000531
     atom   87 type  2   force =    -0.00003698    0.00001602    0.00002466
     atom   88 type  2   force =    -0.00005183    0.00003141    0.00000728
     atom   89 type  2   force =     0.00001809    0.00003594    0.00000721
     atom   90 type  2   force =    -0.00001966   -0.00003732   -0.00001699
     atom   91 type  1   force =     0.00000723   -0.00000293    0.00071054
     atom   92 type  1   force =     0.00000076    0.00000687   -0.00060672
     atom   93 type  1   force =     0.00000279   -0.00000124    0.00062751
     atom   94 type  1   force =    -0.00000244    0.00000005   -0.00068115
     atom   95 type  1   force =     0.00000663    0.00000164    0.00066748
     atom   96 type  1   force =    -0.00000195   -0.00000143   -0.00064933
     atom   97 type  1   force =    -0.00000198   -0.00000180    0.00065207
     atom   98 type  1   force =     0.00000310   -0.00000847   -0.00067181
     atom   99 type  1   force =    -0.00000862   -0.00000568    0.00068076
     atom  100 type  1   force =    -0.00000654    0.00000002   -0.00063396
     atom  101 type  1   force =    -0.00000569    0.00000795    0.00060182
     atom  102 type  1   force =     0.00000677    0.00000426   -0.00071830
     atom  103 type  2   force =     0.00003057   -0.00002621    0.00001112
     atom  104 type  2   force =    -0.00000431    0.00002672   -0.00000424
     atom  105 type  2   force =    -0.00004489   -0.00000476    0.00001173
     atom  106 type  2   force =     0.00003201    0.00001109   -0.00000282
     atom  107 type  2   force =    -0.00002667    0.00001901   -0.00000739
     atom  108 type  2   force =    -0.00000833   -0.00005269   -0.00000518
     atom  109 type  2   force =     0.00001935   -0.00004817    0.00002090
     atom  110 type  2   force =    -0.00003859    0.00000737    0.00001879
     atom  111 type  2   force =     0.00002368    0.00000619    0.00003202
     atom  112 type  2   force =    -0.00001168   -0.00003914   -0.00001042
     atom  113 type  2   force =    -0.00001573    0.00001429   -0.00002484
     atom  114 type  2   force =     0.00003894    0.00001479   -0.00001594
     atom  115 type  2   force =     0.00001354   -0.00002758   -0.00000344
     atom  116 type  2   force =     0.00002288    0.00004962    0.00000593
     atom  117 type  2   force =    -0.00003352    0.00000393    0.00001496
     atom  118 type  2   force =    -0.00003857    0.00002991   -0.00000654
     atom  119 type  2   force =     0.00002003    0.00002578   -0.00000311
     atom  120 type  2   force =    -0.00000219   -0.00003431   -0.00001492
     The non-local contrib.  to forces
     atom    1 type  1   force =    -0.00011779    0.00025897    0.06445864
     atom    2 type  1   force =    -0.00005769   -0.00012340   -0.06532859
     atom    3 type  1   force =    -0.00012786    0.00008202    0.06503535
     atom    4 type  1   force =     0.00017205   -0.00009285   -0.06449422
     atom    5 type  1   force =    -0.00010822   -0.00017774    0.06482399
     atom    6 type  1   force =     0.00019628   -0.00003628   -0.06493399
     atom    7 type  1   force =     0.00011827   -0.00007174    0.06486570
     atom    8 type  1   force =    -0.00002647    0.00003823   -0.06478438
     atom    9 type  1   force =     0.00026685   -0.00004613    0.06451691
     atom   10 type  1   force =    -0.00012920    0.00017211   -0.06505987
     atom   11 type  1   force =     0.00000313   -0.00002235    0.06528091
     atom   12 type  1   force =    -0.00017011    0.00007255   -0.06439863
     atom   13 type  2   force =     0.00859766   -0.01442553   -0.00109999
     atom   14 type  2   force =     0.00710475    0.01551639   -0.00224228
     atom   15 type  2   force =    -0.01626136   -0.00098358   -0.00144172
     atom   16 type  2   force =     0.01732215    0.00090439    0.00111177
     atom   17 type  2   force =    -0.00879551    0.01497749    0.00131957
     atom   18 type  2   force =    -0.00802054   -0.01539402    0.00144800
     atom   19 type  2   force =     0.00818052   -0.01412059   -0.00089798
     atom   20 type  2   force =    -0.01682136   -0.00077685   -0.00133704
     atom   21 type  2   force =     0.00897801    0.01438452   -0.00027316
     atom   22 type  2   force =    -0.00812070   -0.01462648    0.00111572
     atom   23 type  2   force =    -0.00855939    0.01455598    0.00046584
     atom   24 type  2   force =     0.01653043    0.00001712    0.00082463
     atom   25 type  2   force =     0.00987015   -0.01451886   -0.00165453
     atom   26 type  2   force =     0.00795392    0.01491630   -0.00123386
     atom   27 type  2   force =    -0.01745034    0.00028617   -0.00092744
     atom   28 type  2   force =    -0.00950014    0.01361148    0.00198542
     atom   29 type  2   force =     0.01694684    0.00088250    0.00178734
     atom   30 type  2   force =    -0.00771303   -0.01476174    0.00116105
     atom   31 type  1   force =    -0.00007542    0.00026341    0.06442022
     atom   32 type  1   force =    -0.00005328   -0.00013242   -0.06530126
     atom   33 type  1   force =    -0.00013231    0.00006741    0.06506616
     atom   34 type  1   force =     0.00018295   -0.00009164   -0.06451792
     atom   35 type  1   force =    -0.00009698   -0.00017698    0.06479779
     atom   36 type  1   force =     0.00019206   -0.00005065   -0.06489812
     atom   37 type  1   force =     0.00012535   -0.00008933    0.06489803
     atom   38 type  1   force =     0.00001420    0.00003925   -0.06482489
     atom   39 type  1   force =     0.00028859   -0.00007706    0.06446527
     atom   40 type  1   force =    -0.00009199    0.00017982   -0.06505940
     atom   41 type  1   force =     0.00003874   -0.00000989    0.06527811
     atom   42 type  1   force =    -0.00015061    0.00004089   -0.06445294
     atom   43 type  2   force =     0.00871373   -0.01445291   -0.00115254
     atom   44 type  2   force =     0.00705364    0.01541268   -0.00216639
     atom   45 type  2   force =    -0.01615489   -0.00100581   -0.00152559
     atom   46 type  2   force =     0.01725291    0.00082506    0.00113595
     atom   47 type  2   force =    -0.00878550    0.01494601    0.00131904
     atom   48 type  2   force =    -0.00790720   -0.01552320    0.00151245
     atom   49 type  2   force =     0.00818893   -0.01416149   -0.00088406
     atom   50 type  2   force =    -0.01689996   -0.00086697   -0.00133167
     atom   51 type  2   force =     0.00909594    0.01426516   -0.00018053
     atom   52 type  2   force =    -0.00816826   -0.01472676    0.00120431
     atom   53 type  2   force =    -0.00845215    0.01451492    0.00043529
     atom   54 type  2   force =     0.01665237    0.00002203    0.00077887
     atom   55 type  2   force =     0.00994377   -0.01453770   -0.00178739
     atom   56 type  2   force =     0.00812475    0.01490612   -0.00120867
     atom   57 type  2   force =    -0.01742468    0.00017193   -0.00100957
     atom   58 type  2   force =    -0.00942968    0.01359595    0.00186048
     atom   59 type  2   force =     0.01696584    0.00079740    0.00171367
     atom   60 type  2   force =    -0.00753006   -0.01477623    0.00119786
     atom   61 type  1   force =    -0.00012821    0.00024333    0.06441761
     atom   62 type  1   force =    -0.00006654   -0.00011496   -0.06530802
     atom   63 type  1   force =    -0.00013256    0.00008400    0.06505745
     atom   64 type  1   force =     0.00015730   -0.00010048   -0.06453154
     atom   65 type  1   force =    -0.00012350   -0.00017811    0.06479045
     atom   66 type  1   force =     0.00018332    0.00000551   -0.06489295
     atom   67 type  1   force =     0.00008623   -0.00006806    0.06492076
     atom   68 type  1   force =    -0.00003444    0.00007383   -0.06478486
     atom   69 type  1   force =     0.00025163   -0.00000873    0.06451849
     atom   70 type  1   force =    -0.00016987    0.00017679   -0.06500438
     atom   71 type  1   force =    -0.00001618    0.00001353    0.06531904
     atom   72 type  1   force =    -0.00018480    0.00007166   -0.06443326
     atom   73 type  2   force =     0.00855163   -0.01453825   -0.00111629
     atom   74 type  2   force =     0.00692923    0.01555697   -0.00233012
     atom   75 type  2   force =    -0.01631305   -0.00100420   -0.00146131
     atom   76 type  2   force =     0.01728258    0.00090221    0.00111099
     atom   77 type  2   force =    -0.00885367    0.01485233    0.00132773
     atom   78 type  2   force =    -0.00820083   -0.01534886    0.00134291
     atom   79 type  2   force =     0.00812421   -0.01402055   -0.00083959
     atom   80 type  2   force =    -0.01690964   -0.00068185   -0.00128344
     atom   81 type  2   force =     0.00891275    0.01429826   -0.00036688
     atom   82 type  2   force =    -0.00821268   -0.01448572    0.00110101
     atom   83 type  2   force =    -0.00864587    0.01453124    0.00054070
     atom   84 type  2   force =     0.01647780    0.00008471    0.00096780
     atom   85 type  2   force =     0.00974084   -0.01456234   -0.00155352
     atom   86 type  2   force =     0.00784344    0.01508111   -0.00127557
     atom   87 type  2   force =    -0.01749967    0.00033241   -0.00080855
     atom   88 type  2   force =    -0.00956089    0.01373308    0.00204839
     atom   89 type  2   force =     0.01685371    0.00094433    0.00181281
     atom   90 type  2   force =    -0.00777875   -0.01486767    0.00107035
     atom   91 type  1   force =    -0.00008567    0.00024673    0.06438021
     atom   92 type  1   force =    -0.00006017   -0.00012024   -0.06527641
     atom   93 type  1   force =    -0.00013578    0.00007356    0.06509080
     atom   94 type  1   force =     0.00016567   -0.00009832   -0.06455527
     atom   95 type  1   force =    -0.00011222   -0.00017799    0.06476421
     atom   96 type  1   force =     0.00018037   -0.00001089   -0.06485550
     atom   97 type  1   force =     0.00009538   -0.00008518    0.06495382
     atom   98 type  1   force =     0.00000695    0.00007604   -0.06482540
     atom   99 type  1   force =     0.00027440   -0.00003728    0.06446688
     atom  100 type  1   force =    -0.00013326    0.00018742   -0.06500408
     atom  101 type  1   force =     0.00002030    0.00002684    0.06531865
     atom  102 type  1   force =    -0.00016495    0.00003967   -0.06448820
     atom  103 type  2   force =     0.00867567   -0.01457004   -0.00117303
     atom  104 type  2   force =     0.00688355    0.01545854   -0.00224830
     atom  105 type  2   force =    -0.01620411   -0.00101623   -0.00153090
     atom  106 type  2   force =     0.01721110    0.00081482    0.00112474
     atom  107 type  2   force =    -0.00883141    0.01481934    0.00131556
     atom  108 type  2   force =    -0.00808484   -0.01547772    0.00141433
     atom  109 type  2   force =     0.00813484   -0.01405572   -0.00082456
     atom  110 type  2   force =    -0.01698917   -0.00077568   -0.00128595
     atom  111 type  2   force =     0.00902814    0.01417905   -0.00027560
     atom  112 type  2   force =    -0.00826345   -0.01458394    0.00118295
     atom  113 type  2   force =    -0.00853586    0.01449029    0.00050814
     atom  114 type  2   force =     0.01660462    0.00008770    0.00092167
     atom  115 type  2   force =     0.00981742   -0.01457583   -0.00169055
     atom  116 type  2   force =     0.00801682    0.01507235   -0.00124622
     atom  117 type  2   force =    -0.01746988    0.00022373   -0.00088564
     atom  118 type  2   force =    -0.00949698    0.01371391    0.00192472
     atom  119 type  2   force =     0.01686887    0.00086292    0.00173579
     atom  120 type  2   force =    -0.00760103   -0.01488383    0.00110558
     The ionic contribution  to forces
     atom    1 type  1   force =    -0.00050591    0.00133140   -0.60080477
     atom    2 type  1   force =     0.00016110   -0.00082085    0.59316433
     atom    3 type  1   force =    -0.00126893   -0.00001936   -0.59490143
     atom    4 type  1   force =     0.00067867   -0.00120924    0.60048753
     atom    5 type  1   force =    -0.00084420   -0.00074126   -0.59751580
     atom    6 type  1   force =     0.00087569    0.00017881    0.59621128
     atom    7 type  1   force =     0.00083104   -0.00052994   -0.59636536
     atom    8 type  1   force =     0.00021381    0.00046348    0.59782812
     atom    9 type  1   force =     0.00133474   -0.00076281   -0.60027010
     atom   10 type  1   force =    -0.00118177    0.00033302    0.59476246
     atom   11 type  1   force =     0.00012000    0.00026654   -0.59344383
     atom   12 type  1   force =    -0.00111019    0.00051100    0.60096511
     atom   13 type  2   force =    -0.59515461    1.02719722   -0.00724402
     atom   14 type  2   force =    -0.59544134   -1.02759193   -0.00687040
     atom   15 type  2   force =     1.19112046   -0.00046918   -0.00680224
     atom   16 type  2   force =    -1.18735039   -0.00030532    0.00675342
     atom   17 type  2   force =     0.59380592   -1.02794317    0.00813893
     atom   18 type  2   force =     0.59239100    1.02690904    0.00796063
     atom   19 type  2   force =    -0.59623050    1.03098039   -0.00665080
     atom   20 type  2   force =     1.18712494   -0.00065222   -0.00598679
     atom   21 type  2   force =    -0.59166232   -1.03011400   -0.00633858
     atom   22 type  2   force =     0.59402580    1.02970318    0.00676644
     atom   23 type  2   force =     0.59483253   -1.02835705    0.00582698
     atom   24 type  2   force =    -1.18892534   -0.00145189    0.00699016
     atom   25 type  2   force =    -0.59193598    1.02701613   -0.00716763
     atom   26 type  2   force =    -0.59449858   -1.03012140   -0.00765975
     atom   27 type  2   force =     1.18567343    0.00181314   -0.00786770
     atom   28 type  2   force =     0.59393113   -1.02989157    0.00696389
     atom   29 type  2   force =    -1.18766287    0.00031449    0.00711324
     atom   30 type  2   force =     0.59419845    1.02975304    0.00601428
     atom   31 type  1   force =    -0.00041411    0.00138224   -0.60100058
     atom   32 type  1   force =     0.00031070   -0.00067676    0.59326427
     atom   33 type  1   force =    -0.00106991    0.00018249   -0.59476060
     atom   34 type  1   force =     0.00074391   -0.00123348    0.60043682
     atom   35 type  1   force =    -0.00073072   -0.00074228   -0.59758345
     atom   36 type  1   force =     0.00103796    0.00036310    0.59638437
     atom   37 type  1   force =     0.00096565   -0.00043785   -0.59624823
     atom   38 type  1   force =     0.00027910    0.00050213    0.59765799
     atom   39 type  1   force =     0.00140537   -0.00079515   -0.60047131
     atom   40 type  1   force =    -0.00103007    0.00044005    0.59480287
     atom   41 type  1   force =     0.00025220    0.00038518   -0.59340487
     atom   42 type  1   force =    -0.00103654    0.00046141    0.60077857
     atom   43 type  2   force =    -0.59482067    1.02734363   -0.00728833
     atom   44 type  2   force =    -0.59495543   -1.02743842   -0.00677026
     atom   45 type  2   force =     1.19117127   -0.00049224   -0.00687037
     atom   46 type  2   force =    -1.18708502   -0.00013798    0.00675031
     atom   47 type  2   force =     0.59421788   -1.02775084    0.00805036
     atom   48 type  2   force =     0.59277077    1.02703362    0.00798967
     atom   49 type  2   force =    -0.59591771    1.03112055   -0.00663809
     atom   50 type  2   force =     1.18744477   -0.00042653   -0.00600135
     atom   51 type  2   force =    -0.59134259   -1.02999846   -0.00627874
     atom   52 type  2   force =     0.59449639    1.02986358    0.00684643
     atom   53 type  2   force =     0.59509748   -1.02821372    0.00584444
     atom   54 type  2   force =    -1.18890637   -0.00149868    0.00699203
     atom   55 type  2   force =    -0.59201823    1.02696064   -0.00726913
     atom   56 type  2   force =    -0.59448566   -1.02999017   -0.00761590
     atom   57 type  2   force =     1.18576582    0.00192261   -0.00797995
     atom   58 type  2   force =     0.59388595   -1.02994140    0.00688756
     atom   59 type  2   force =    -1.18760152    0.00043323    0.00702143
     atom   60 type  2   force =     0.59417311    1.02987341    0.00608077
     atom   61 type  1   force =    -0.00041766    0.00156516   -0.60100430
     atom   62 type  1   force =     0.00009213   -0.00074231    0.59321580
     atom   63 type  1   force =    -0.00132650    0.00000292   -0.59485261
     atom   64 type  1   force =     0.00074487   -0.00092726    0.60032653
     atom   65 type  1   force =    -0.00080609   -0.00053640   -0.59762639
     atom   66 type  1   force =     0.00087812    0.00027850    0.59641239
     atom   67 type  1   force =     0.00076493   -0.00048924   -0.59615262
     atom   68 type  1   force =     0.00023271    0.00063229    0.59778691
     atom   69 type  1   force =     0.00134637   -0.00055871   -0.60029904
     atom   70 type  1   force =    -0.00124698    0.00037044    0.59497502
     atom   71 type  1   force =     0.00013730    0.00032367   -0.59328526
     atom   72 type  1   force =    -0.00108578    0.00070736    0.60083655
     atom   73 type  2   force =    -0.59508048    1.02756169   -0.00725947
     atom   74 type  2   force =    -0.59551388   -1.02722114   -0.00698025
     atom   75 type  2   force =     1.19108929   -0.00009136   -0.00679464
     atom   76 type  2   force =    -1.18736818    0.00013704    0.00682716
     atom   77 type  2   force =     0.59385092   -1.02759859    0.00814464
     atom   78 type  2   force =     0.59232422    1.02728226    0.00791892
     atom   79 type  2   force =    -0.59629439    1.03097170   -0.00656685
     atom   80 type  2   force =     1.18709421   -0.00032980   -0.00598748
     atom   81 type  2   force =    -0.59177529   -1.02963387   -0.00644874
     atom   82 type  2   force =     0.59414636    1.02976209    0.00668469
     atom   83 type  2   force =     0.59489868   -1.02825730    0.00593722
     atom   84 type  2   force =    -1.18894441   -0.00154676    0.00703779
     atom   85 type  2   force =    -0.59188683    1.02716520   -0.00703094
     atom   86 type  2   force =    -0.59438183   -1.03003094   -0.00767658
     atom   87 type  2   force =     1.18567978    0.00169636   -0.00776213
     atom   88 type  2   force =     0.59387137   -1.02992406    0.00693293
     atom   89 type  2   force =    -1.18768913    0.00063871    0.00710808
     atom   90 type  2   force =     0.59407549    1.03028644    0.00592023
     atom   91 type  1   force =    -0.00033888    0.00162377   -0.60119498
     atom   92 type  1   force =     0.00024031   -0.00058912    0.59332994
     atom   93 type  1   force =    -0.00112243    0.00021380   -0.59469801
     atom   94 type  1   force =     0.00079969   -0.00094736    0.60027370
     atom   95 type  1   force =    -0.00069029   -0.00054513   -0.59769786
     atom   96 type  1   force =     0.00105032    0.00045553    0.59658709
     atom   97 type  1   force =     0.00090018   -0.00039364   -0.59603718
     atom   98 type  1   force =     0.00030500    0.00066918    0.59761324
     atom   99 type  1   force =     0.00142857   -0.00059542   -0.60050512
     atom  100 type  1   force =    -0.00110992    0.00049034    0.59502179
     atom  101 type  1   force =     0.00026641    0.00044927   -0.59323941
     atom  102 type  1   force =    -0.00099668    0.00064603    0.60064047
     atom  103 type  2   force =    -0.59479938    1.02772681   -0.00729958
     atom  104 type  2   force =    -0.59501743   -1.02708407   -0.00686401
     atom  105 type  2   force =     1.19113053   -0.00010908   -0.00685077
     atom  106 type  2   force =    -1.18711678    0.00031999    0.00681088
     atom  107 type  2   force =     0.59425579   -1.02741100    0.00807093
     atom  108 type  2   force =     0.59270159    1.02740266    0.00795834
     atom  109 type  2   force =    -0.59597016    1.03110270   -0.00655415
     atom  110 type  2   force =     1.18743185   -0.00010841   -0.00598753
     atom  111 type  2   force =    -0.59145242   -1.02951430   -0.00638171
     atom  112 type  2   force =     0.59459686    1.02993019    0.00678103
     atom  113 type  2   force =     0.59516875   -1.02811682    0.00595519
     atom  114 type  2   force =    -1.18891680   -0.00160212    0.00704098
     atom  115 type  2   force =    -0.59193841    1.02709244   -0.00713146
     atom  116 type  2   force =    -0.59437080   -1.02990502   -0.00764298
     atom  117 type  2   force =     1.18573879    0.00181908   -0.00787144
     atom  118 type  2   force =     0.59380794   -1.02995624    0.00686297
     atom  119 type  2   force =    -1.18763441    0.00076594    0.00702306
     atom  120 type  2   force =     0.59409340    1.03039229    0.00598468
     The local contribution  to forces
     atom    1 type  1   force =     0.00063503   -0.00158569    0.53706098
     atom    2 type  1   force =    -0.00010791    0.00094662   -0.52844301
     atom    3 type  1   force =     0.00140158   -0.00005842    0.53050353
     atom    4 type  1   force =    -0.00084912    0.00130674   -0.53668186
     atom    5 type  1   force =     0.00096121    0.00091467    0.53336487
     atom    6 type  1   force =    -0.00107171   -0.00013767   -0.53193102
     atom    7 type  1   force =    -0.00094779    0.00060226    0.53214024
     atom    8 type  1   force =    -0.00018794   -0.00050931   -0.53371876
     atom    9 type  1   force =    -0.00161498    0.00081442    0.53642647
     atom   10 type  1   force =     0.00131846   -0.00050593   -0.53033065
     atom   11 type  1   force =    -0.00012589   -0.00023906    0.52876682
     atom   12 type  1   force =     0.00128768   -0.00057373   -0.53727320
     atom   13 type  2   force =     0.58657682   -1.01278963    0.00836293
     atom   14 type  2   force =     0.58835291    1.01211274    0.00910631
     atom   15 type  2   force =    -1.17490069    0.00145539    0.00826307
     atom   16 type  2   force =     1.17006487   -0.00058289   -0.00786773
     atom   17 type  2   force =    -0.58503462    1.01299378   -0.00946638
     atom   18 type  2   force =    -0.58436528   -1.01154713   -0.00941027
     atom   19 type  2   force =     0.58807492   -1.01690592    0.00756194
     atom   20 type  2   force =    -1.17032872    0.00143198    0.00733949
     atom   21 type  2   force =     0.58270849    1.01575688    0.00664880
     atom   22 type  2   force =    -0.58591886   -1.01511906   -0.00790298
     atom   23 type  2   force =    -0.58629727    1.01383082   -0.00632542
     atom   24 type  2   force =     1.17243117    0.00144277   -0.00784295
     atom   25 type  2   force =     0.58207995   -1.01251607    0.00882094
     atom   26 type  2   force =     0.58655817    1.01523334    0.00890023
     atom   27 type  2   force =    -1.16824973   -0.00209285    0.00880733
     atom   28 type  2   force =    -0.58447179    1.01630217   -0.00894482
     atom   29 type  2   force =     1.17075788   -0.00116987   -0.00889587
     atom   30 type  2   force =    -0.58649020   -1.01502578   -0.00718033
     atom   31 type  1   force =     0.00051185   -0.00164219    0.53728789
     atom   32 type  1   force =    -0.00025065    0.00080673   -0.52856573
     atom   33 type  1   force =     0.00120987   -0.00025904    0.53032581
     atom   34 type  1   force =    -0.00091472    0.00133020   -0.53660347
     atom   35 type  1   force =     0.00084576    0.00091542    0.53346041
     atom   36 type  1   force =    -0.00122624   -0.00032061   -0.53214253
     atom   37 type  1   force =    -0.00107766    0.00052200    0.53199804
     atom   38 type  1   force =    -0.00028392   -0.00055164   -0.53351486
     atom   39 type  1   force =    -0.00169468    0.00086502    0.53667654
     atom   40 type  1   force =     0.00113505   -0.00062503   -0.53038027
     atom   41 type  1   force =    -0.00028778   -0.00037384    0.52872033
     atom   42 type  1   force =     0.00120618   -0.00050413   -0.53703749
     atom   43 type  2   force =     0.58614606   -1.01291877    0.00845439
     atom   44 type  2   force =     0.58792316    1.01205144    0.00893995
     atom   45 type  2   force =    -1.17504707    0.00149562    0.00840802
     atom   46 type  2   force =     1.16987788   -0.00067488   -0.00788900
     atom   47 type  2   force =    -0.58544897    1.01282191   -0.00937952
     atom   48 type  2   force =    -0.58484610   -1.01156331   -0.00950009
     atom   49 type  2   force =     0.58775885   -1.01701497    0.00753658
     atom   50 type  2   force =    -1.17056301    0.00129023    0.00734730
     atom   51 type  2   force =     0.58228424    1.01574131    0.00650219
     atom   52 type  2   force =    -0.58633468   -1.01518971   -0.00806094
     atom   53 type  2   force =    -0.58665059    1.01371723   -0.00631579
     atom   54 type  2   force =     1.17230314    0.00148055   -0.00780158
     atom   55 type  2   force =     0.58210325   -1.01244621    0.00904128
     atom   56 type  2   force =     0.58639138    1.01511679    0.00883147
     atom   57 type  2   force =    -1.16836460   -0.00210067    0.00899152
     atom   58 type  2   force =    -0.58448321    1.01636686   -0.00875678
     atom   59 type  2   force =     1.17067873   -0.00121373   -0.00874063
     atom   60 type  2   force =    -0.58662965   -1.01512951   -0.00728207
     atom   61 type  1   force =     0.00054356   -0.00180836    0.53730471
     atom   62 type  1   force =    -0.00003595    0.00086975   -0.52851976
     atom   63 type  1   force =     0.00145899   -0.00007408    0.53042813
     atom   64 type  1   force =    -0.00091444    0.00102860   -0.53648019
     atom   65 type  1   force =     0.00092691    0.00071702    0.53350033
     atom   66 type  1   force =    -0.00106668   -0.00027016   -0.53216610
     atom   67 type  1   force =    -0.00086469    0.00056304    0.53187574
     atom   68 type  1   force =    -0.00020478   -0.00071129   -0.53366719
     atom   69 type  1   force =    -0.00161909    0.00057562    0.53646358
     atom   70 type  1   force =     0.00140608   -0.00054158   -0.53059512
     atom   71 type  1   force =    -0.00013251   -0.00032417    0.52857827
     atom   72 type  1   force =     0.00126678   -0.00076224   -0.53711685
     atom   73 type  2   force =     0.58654031   -1.01303723    0.00839320
     atom   74 type  2   force =     0.58857503    1.01170383    0.00929677
     atom   75 type  2   force =    -1.17483282    0.00109697    0.00827388
     atom   76 type  2   force =     1.17011018   -0.00102175   -0.00793946
     atom   77 type  2   force =    -0.58503085    1.01277727   -0.00947682
     atom   78 type  2   force =    -0.58414482   -1.01196305   -0.00927187
     atom   79 type  2   force =     0.58818459   -1.01698771    0.00742514
     atom   80 type  2   force =    -1.17022997    0.00102722    0.00729048
     atom   81 type  2   force =     0.58287299    1.01536315    0.00684059
     atom   82 type  2   force =    -0.58595190   -1.01530362   -0.00780790
     atom   83 type  2   force =    -0.58628734    1.01375348   -0.00650061
     atom   84 type  2   force =     1.17249381    0.00148256   -0.00801892
     atom   85 type  2   force =     0.58214581   -1.01262560    0.00859484
     atom   86 type  2   force =     0.58654585    1.01499717    0.00895758
     atom   87 type  2   force =    -1.16821675   -0.00201112    0.00859549
     atom   88 type  2   force =    -0.58436198    1.01622447   -0.00897338
     atom   89 type  2   force =     1.17085441   -0.00154514   -0.00891314
     atom   90 type  2   force =    -0.58631505   -1.01545487   -0.00700729
     atom   91 type  1   force =     0.00043282   -0.00187187    0.53752556
     atom   92 type  1   force =    -0.00017849    0.00071779   -0.52865980
     atom   93 type  1   force =     0.00126186   -0.00028705    0.53023477
     atom   94 type  1   force =    -0.00096670    0.00104732   -0.53639955
     atom   95 type  1   force =     0.00081001    0.00072627    0.53360082
     atom   96 type  1   force =    -0.00123193   -0.00044431   -0.53238116
     atom   97 type  1   force =    -0.00099652    0.00047869    0.53173523
     atom   98 type  1   force =    -0.00030822   -0.00075221   -0.53345959
     atom   99 type  1   force =    -0.00171096    0.00062884    0.53671886
     atom  100 type  1   force =     0.00123775   -0.00067604   -0.53065167
     atom  101 type  1   force =    -0.00029172   -0.00046659    0.52852253
     atom  102 type  1   force =     0.00116922   -0.00067991   -0.53687007
     atom  103 type  2   force =     0.58615576   -1.01318158    0.00848487
     atom  104 type  2   force =     0.58813026    1.01165396    0.00910915
     atom  105 type  2   force =    -1.17497005    0.00112183    0.00839437
     atom  106 type  2   force =     1.16993908   -0.00112187   -0.00793838
     atom  107 type  2   force =    -0.58545090    1.01261267   -0.00939400
     atom  108 type  2   force =    -0.58462403   -1.01197627   -0.00937781
     atom  109 type  2   force =     0.58785614   -1.01709365    0.00739906
     atom  110 type  2   force =    -1.17048102    0.00089312    0.00729155
     atom  111 type  2   force =     0.58244932    1.01534294    0.00668876
     atom  112 type  2   force =    -0.58634398   -1.01538443   -0.00797493
     atom  113 type  2   force =    -0.58664808    1.01364298   -0.00648877
     atom  114 type  2   force =     1.17235177    0.00153134   -0.00797970
     atom  115 type  2   force =     0.58213481   -1.01254250    0.00881866
     atom  116 type  2   force =     0.58637812    1.01488475    0.00889532
     atom  117 type  2   force =    -1.16830169   -0.00203750    0.00877198
     atom  118 type  2   force =    -0.58434841    1.01627421   -0.00879395
     atom  119 type  2   force =     1.17078707   -0.00160151   -0.00876173
     atom  120 type  2   force =    -0.58649454   -1.01554137   -0.00710425
     The core correction contribution to forces
     atom    1 type  1   force =     0.00000000    0.00000000    0.00000000
     atom    2 type  1   force =     0.00000000    0.00000000    0.00000000
     atom    3 type  1   force =     0.00000000    0.00000000    0.00000000
     atom    4 type  1   force =     0.00000000    0.00000000    0.00000000
     atom    5 type  1   force =     0.00000000    0.00000000    0.00000000
     atom    6 type  1   force =     0.00000000    0.00000000    0.00000000
     atom    7 type  1   force =     0.00000000    0.00000000    0.00000000
     atom    8 type  1   force =     0.00000000    0.00000000    0.00000000
     atom    9 type  1   force =     0.00000000    0.00000000    0.00000000
     atom   10 type  1   force =     0.00000000    0.00000000    0.00000000
     atom   11 type  1   force =     0.00000000    0.00000000    0.00000000
     atom   12 type  1   force =     0.00000000    0.00000000    0.00000000
     atom   13 type  2   force =     0.00000000    0.00000000    0.00000000
     atom   14 type  2   force =     0.00000000    0.00000000    0.00000000
     atom   15 type  2   force =     0.00000000    0.00000000    0.00000000
     atom   16 type  2   force =     0.00000000    0.00000000    0.00000000
     atom   17 type  2   force =     0.00000000    0.00000000    0.00000000
     atom   18 type  2   force =     0.00000000    0.00000000    0.00000000
     atom   19 type  2   force =     0.00000000    0.00000000    0.00000000
     atom   20 type  2   force =     0.00000000    0.00000000    0.00000000
     atom   21 type  2   force =     0.00000000    0.00000000    0.00000000
     atom   22 type  2   force =     0.00000000    0.00000000    0.00000000
     atom   23 type  2   force =     0.00000000    0.00000000    0.00000000
     atom   24 type  2   force =     0.00000000    0.00000000    0.00000000
     atom   25 type  2   force =     0.00000000    0.00000000    0.00000000
     atom   26 type  2   force =     0.00000000    0.00000000    0.00000000
     atom   27 type  2   force =     0.00000000    0.00000000    0.00000000
     atom   28 type  2   force =     0.00000000    0.00000000    0.00000000
     atom   29 type  2   force =     0.00000000    0.00000000    0.00000000
     atom   30 type  2   force =     0.00000000    0.00000000    0.00000000
[...]
     atom    7 type  1   force =     0.00000000    0.00000000    0.00000000
     atom    8 type  1   force =     0.00000000    0.00000000    0.00000000
     atom    9 type  1   force =     0.00000000    0.00000000    0.00000000
     atom   10 type  1   force =     0.00000000    0.00000000    0.00000000
     atom   11 type  1   force =     0.00000000    0.00000000    0.00000000
     atom   12 type  1   force =     0.00000000    0.00000000    0.00000000
     atom   13 type  2   force =     0.00000000    0.00000000    0.00000000
     atom   14 type  2   force =     0.00000000    0.00000000    0.00000000
     atom   15 type  2   force =     0.00000000    0.00000000    0.00000000
     atom   16 type  2   force =     0.00000000    0.00000000    0.00000000
     atom   17 type  2   force =     0.00000000    0.00000000    0.00000000
     atom   18 type  2   force =     0.00000000    0.00000000    0.00000000
     atom   19 type  2   force =     0.00000000    0.00000000    0.00000000
     atom   20 type  2   force =     0.00000000    0.00000000    0.00000000
     atom   21 type  2   force =     0.00000000    0.00000000    0.00000000
     atom   22 type  2   force =     0.00000000    0.00000000    0.00000000
     atom   23 type  2   force =     0.00000000    0.00000000    0.00000000
     atom   24 type  2   force =     0.00000000    0.00000000    0.00000000
     atom   25 type  2   force =     0.00000000    0.00000000    0.00000000
     atom   26 type  2   force =     0.00000000    0.00000000    0.00000000
     atom   27 type  2   force =     0.00000000    0.00000000    0.00000000
     atom   28 type  2   force =     0.00000000    0.00000000    0.00000000
     atom   29 type  2   force =     0.00000000    0.00000000    0.00000000
     atom   30 type  2   force =     0.00000000    0.00000000    0.00000000
     atom   31 type  1   force =     0.00000000    0.00000000    0.00000000
     atom   32 type  1   force =     0.00000000    0.00000000    0.00000000
     atom   33 type  1   force =     0.00000000    0.00000000    0.00000000
     atom   34 type  1   force =     0.00000000    0.00000000    0.00000000
     atom   35 type  1   force =     0.00000000    0.00000000    0.00000000
     atom   36 type  1   force =     0.00000000    0.00000000    0.00000000
     atom   37 type  1   force =     0.00000000    0.00000000    0.00000000
     atom   38 type  1   force =     0.00000000    0.00000000    0.00000000
     atom   39 type  1   force =     0.00000000    0.00000000    0.00000000
     atom   40 type  1   force =     0.00000000    0.00000000    0.00000000
     atom   41 type  1   force =     0.00000000    0.00000000    0.00000000
     atom   42 type  1   force =     0.00000000    0.00000000    0.00000000
     atom   43 type  2   force =     0.00000000    0.00000000    0.00000000
     atom   44 type  2   force =     0.00000000    0.00000000    0.00000000
     atom   45 type  2   force =     0.00000000    0.00000000    0.00000000
     atom   46 type  2   force =     0.00000000    0.00000000    0.00000000
     atom   47 type  2   force =     0.00000000    0.00000000    0.00000000
     atom   48 type  2   force =     0.00000000    0.00000000    0.00000000
     atom   49 type  2   force =     0.00000000    0.00000000    0.00000000
     atom   50 type  2   force =     0.00000000    0.00000000    0.00000000
     atom   51 type  2   force =     0.00000000    0.00000000    0.00000000
     atom   52 type  2   force =     0.00000000    0.00000000    0.00000000
     atom   53 type  2   force =     0.00000000    0.00000000    0.00000000
     atom   54 type  2   force =     0.00000000    0.00000000    0.00000000
     atom   55 type  2   force =     0.00000000    0.00000000    0.00000000
     atom   56 type  2   force =     0.00000000    0.00000000    0.00000000
     atom   57 type  2   force =     0.00000000    0.00000000    0.00000000
     atom   58 type  2   force =     0.00000000    0.00000000    0.00000000
     atom   59 type  2   force =     0.00000000    0.00000000    0.00000000
     atom   60 type  2   force =     0.00000000    0.00000000    0.00000000
     atom   61 type  1   force =     0.00000000    0.00000000    0.00000000
     atom   62 type  1   force =     0.00000000    0.00000000    0.00000000
     atom   63 type  1   force =     0.00000000    0.00000000    0.00000000
     atom   64 type  1   force =     0.00000000    0.00000000    0.00000000
     atom   65 type  1   force =     0.00000000    0.00000000    0.00000000
     atom   66 type  1   force =     0.00000000    0.00000000    0.00000000
     atom   67 type  1   force =     0.00000000    0.00000000    0.00000000
     atom   68 type  1   force =     0.00000000    0.00000000    0.00000000
     atom   69 type  1   force =     0.00000000    0.00000000    0.00000000
     atom   70 type  1   force =     0.00000000    0.00000000    0.00000000
     atom   71 type  1   force =     0.00000000    0.00000000    0.00000000
     atom   72 type  1   force =     0.00000000    0.00000000    0.00000000
     atom   73 type  2   force =     0.00000000    0.00000000    0.00000000
     atom   74 type  2   force =     0.00000000    0.00000000    0.00000000
     atom   75 type  2   force =     0.00000000    0.00000000    0.00000000
     atom   76 type  2   force =     0.00000000    0.00000000    0.00000000
     atom   77 type  2   force =     0.00000000    0.00000000    0.00000000
     atom   78 type  2   force =     0.00000000    0.00000000    0.00000000
     atom   79 type  2   force =     0.00000000    0.00000000    0.00000000
     atom   80 type  2   force =     0.00000000    0.00000000    0.00000000
     atom   81 type  2   force =     0.00000000    0.00000000    0.00000000
     atom   82 type  2   force =     0.00000000    0.00000000    0.00000000
     atom   83 type  2   force =     0.00000000    0.00000000    0.00000000
     atom   84 type  2   force =     0.00000000    0.00000000    0.00000000
     atom   85 type  2   force =     0.00000000    0.00000000    0.00000000
     atom   86 type  2   force =     0.00000000    0.00000000    0.00000000
     atom   87 type  2   force =     0.00000000    0.00000000    0.00000000
     atom   88 type  2   force =     0.00000000    0.00000000    0.00000000
     atom   89 type  2   force =     0.00000000    0.00000000    0.00000000
     atom   90 type  2   force =     0.00000000    0.00000000    0.00000000
     atom   91 type  1   force =     0.00000000    0.00000000    0.00000000
     atom   92 type  1   force =     0.00000000    0.00000000    0.00000000
     atom   93 type  1   force =     0.00000000    0.00000000    0.00000000
     atom   94 type  1   force =     0.00000000    0.00000000    0.00000000
     atom   95 type  1   force =     0.00000000    0.00000000    0.00000000
     atom   96 type  1   force =     0.00000000    0.00000000    0.00000000
     atom   97 type  1   force =     0.00000000    0.00000000    0.00000000
     atom   98 type  1   force =     0.00000000    0.00000000    0.00000000
     atom   99 type  1   force =     0.00000000    0.00000000    0.00000000
     atom  100 type  1   force =     0.00000000    0.00000000    0.00000000
     atom  101 type  1   force =     0.00000000    0.00000000    0.00000000
     atom  102 type  1   force =     0.00000000    0.00000000    0.00000000
     atom  103 type  2   force =     0.00000000    0.00000000    0.00000000
     atom  104 type  2   force =     0.00000000    0.00000000    0.00000000
     atom  105 type  2   force =     0.00000000    0.00000000    0.00000000
     atom  106 type  2   force =     0.00000000    0.00000000    0.00000000
     atom  107 type  2   force =     0.00000000    0.00000000    0.00000000
     atom  108 type  2   force =     0.00000000    0.00000000    0.00000000
     atom  109 type  2   force =     0.00000000    0.00000000    0.00000000
     atom  110 type  2   force =     0.00000000    0.00000000    0.00000000
     atom  111 type  2   force =     0.00000000    0.00000000    0.00000000
     atom  112 type  2   force =     0.00000000    0.00000000    0.00000000
     atom  113 type  2   force =     0.00000000    0.00000000    0.00000000
     atom  114 type  2   force =     0.00000000    0.00000000    0.00000000
     atom  115 type  2   force =     0.00000000    0.00000000    0.00000000
     atom  116 type  2   force =     0.00000000    0.00000000    0.00000000
     atom  117 type  2   force =     0.00000000    0.00000000    0.00000000
     atom  118 type  2   force =     0.00000000    0.00000000    0.00000000
     atom  119 type  2   force =     0.00000000    0.00000000    0.00000000
     atom  120 type  2   force =     0.00000000    0.00000000    0.00000000
     The SCF correction term to forces
     atom    1 type  1   force =    -0.00000006    0.00000015   -0.00000024
     atom    2 type  1   force =    -0.00000024    0.00000008   -0.00000025
     atom    3 type  1   force =    -0.00000001    0.00000003    0.00000003
     atom    4 type  1   force =    -0.00000003    0.00000022    0.00000014
     atom    5 type  1   force =    -0.00000023   -0.00000003    0.00000028
     atom    6 type  1   force =     0.00000004    0.00000006    0.00000030
     atom    7 type  1   force =    -0.00000005    0.00000014    0.00000035
     atom    8 type  1   force =    -0.00000013   -0.00000013    0.00000008
     atom    9 type  1   force =     0.00000012    0.00000004    0.00000014
     atom   10 type  1   force =     0.00000003    0.00000024   -0.00000015
     atom   11 type  1   force =    -0.00000014   -0.00000003   -0.00000012
     atom   12 type  1   force =    -0.00000002   -0.00000003   -0.00000046
     atom   13 type  2   force =    -0.00000054    0.00000061   -0.00000090
     atom   14 type  2   force =    -0.00000039   -0.00000026   -0.00000081
     atom   15 type  2   force =     0.00000009    0.00000038   -0.00000098
     atom   16 type  2   force =     0.00000006    0.00000007    0.00000014
     atom   17 type  2   force =     0.00000033   -0.00000048    0.00000026
     atom   18 type  2   force =    -0.00000029    0.00000057    0.00000023
     atom   19 type  2   force =    -0.00000020    0.00000088    0.00000087
     atom   20 type  2   force =     0.00000011   -0.00000013    0.00000091
     atom   21 type  2   force =    -0.00000051   -0.00000022    0.00000080
     atom   22 type  2   force =     0.00000011    0.00000022    0.00000074
     atom   23 type  2   force =     0.00000009   -0.00000002    0.00000079
     atom   24 type  2   force =    -0.00000040    0.00000001    0.00000096
     atom   25 type  2   force =    -0.00000021    0.00000017   -0.00000038
     atom   26 type  2   force =     0.00000029    0.00000017   -0.00000025
     atom   27 type  2   force =     0.00000001    0.00000003   -0.00000021
     atom   28 type  2   force =     0.00000018    0.00000010   -0.00000058
     atom   29 type  2   force =    -0.00000069    0.00000033   -0.00000062
     atom   30 type  2   force =     0.00000045    0.00000000   -0.00000100
     atom   31 type  1   force =     0.00000004   -0.00000015   -0.00000037
     atom   32 type  1   force =     0.00000029    0.00000000   -0.00000024
     atom   33 type  1   force =    -0.00000008    0.00000000   -0.00000005
     atom   34 type  1   force =     0.00000008   -0.00000008    0.00000009
     atom   35 type  1   force =     0.00000016   -0.00000012    0.00000033
     atom   36 type  1   force =     0.00000006    0.00000020    0.00000015
     atom   37 type  1   force =     0.00000006   -0.00000003    0.00000048
     atom   38 type  1   force =     0.00000001    0.00000005    0.00000006
     atom   39 type  1   force =    -0.00000018    0.00000032    0.00000009
     atom   40 type  1   force =     0.00000007   -0.00000005   -0.00000026
     atom   41 type  1   force =     0.00000009    0.00000007   -0.00000011
     atom   42 type  1   force =    -0.00000004   -0.00000003   -0.00000037
     atom   43 type  2   force =     0.00000021    0.00000023   -0.00000091
     atom   44 type  2   force =     0.00000017   -0.00000010   -0.00000101
     atom   45 type  2   force =     0.00000055   -0.00000044   -0.00000090
     atom   46 type  2   force =    -0.00000055   -0.00000012    0.00000024
     atom   47 type  2   force =    -0.00000002    0.00000027    0.00000019
     atom   48 type  2   force =     0.00000045    0.00000010    0.00000029
     atom   49 type  2   force =    -0.00000003    0.00000024    0.00000069
     atom   50 type  2   force =     0.00000041    0.00000031    0.00000091
     atom   51 type  2   force =     0.00000023   -0.00000052    0.00000091
     atom   52 type  2   force =     0.00000020   -0.00000013    0.00000101
     atom   53 type  2   force =     0.00000037    0.00000012    0.00000086
     atom   54 type  2   force =    -0.00000033    0.00000083    0.00000037
     atom   55 type  2   force =    -0.00000034    0.00000098   -0.00000020
     atom   56 type  2   force =    -0.00000047   -0.00000009    0.00000002
     atom   57 type  2   force =     0.00000068   -0.00000011   -0.00000030
     atom   58 type  2   force =     0.00000015   -0.00000047   -0.00000096
     atom   59 type  2   force =    -0.00000006   -0.00000006   -0.00000091
     atom   60 type  2   force =     0.00000001    0.00000079   -0.00000024
     atom   61 type  1   force =     0.00000016   -0.00000011   -0.00000031
     atom   62 type  1   force =     0.00000010   -0.00000015   -0.00000025
     atom   63 type  1   force =     0.00000002   -0.00000001   -0.00000005
     atom   64 type  1   force =     0.00000019   -0.00000001    0.00000003
     atom   65 type  1   force =     0.00000002   -0.00000011    0.00000025
     atom   66 type  1   force =     0.00000000   -0.00000010    0.00000019
     atom   67 type  1   force =     0.00000012   -0.00000006    0.00000047
     atom   68 type  1   force =    -0.00000021    0.00000005    0.00000017
     atom   69 type  1   force =    -0.00000012   -0.00000013    0.00000020
     atom   70 type  1   force =     0.00000017   -0.00000008   -0.00000020
     atom   71 type  1   force =    -0.00000004   -0.00000004   -0.00000004
     atom   72 type  1   force =    -0.00000006    0.00000001   -0.00000037
     atom   73 type  2   force =     0.00000012   -0.00000020   -0.00000093
     atom   74 type  2   force =    -0.00000019   -0.00000043   -0.00000102
     atom   75 type  2   force =     0.00000091    0.00000006   -0.00000107
     atom   76 type  2   force =     0.00000005    0.00000006    0.00000011
     atom   77 type  2   force =    -0.00000054   -0.00000019   -0.00000003
     atom   78 type  2   force =     0.00000053   -0.00000007   -0.00000005
     atom   79 type  2   force =     0.00000033   -0.00000001    0.00000076
     atom   80 type  2   force =    -0.00000009   -0.00000021    0.00000046
     atom   81 type  2   force =     0.00000017   -0.00000022    0.00000078
     atom   82 type  2   force =     0.00000060    0.00000056    0.00000085
     atom   83 type  2   force =     0.00000015   -0.00000054    0.00000085
     atom   84 type  2   force =    -0.00000080   -0.00000053    0.00000074
     atom   85 type  2   force =    -0.00000074    0.00000016    0.00000014
     atom   86 type  2   force =    -0.00000008   -0.00000043   -0.00000008
     atom   87 type  2   force =     0.00000050   -0.00000002   -0.00000011
     atom   88 type  2   force =     0.00000052   -0.00000047   -0.00000063
     atom   89 type  2   force =    -0.00000006   -0.00000035   -0.00000051
     atom   90 type  2   force =    -0.00000050    0.00000038   -0.00000024
     atom   91 type  1   force =    -0.00000019    0.00000005   -0.00000021
     atom   92 type  1   force =    -0.00000003    0.00000004   -0.00000041
     atom   93 type  1   force =    -0.00000002    0.00000006   -0.00000001
     atom   94 type  1   force =    -0.00000026    0.00000001    0.00000000
     atom   95 type  1   force =    -0.00000003    0.00000009    0.00000035
     atom   96 type  1   force =     0.00000013   -0.00000015    0.00000028
     atom   97 type  1   force =    -0.00000018   -0.00000006    0.00000023
     atom   98 type  1   force =     0.00000021    0.00000012   -0.00000002
     atom   99 type  1   force =     0.00000022   -0.00000021    0.00000018
     atom  100 type  1   force =    -0.00000026   -0.00000011    0.00000003
     atom  101 type  1   force =     0.00000017    0.00000003    0.00000008
     atom  102 type  1   force =     0.00000003    0.00000007   -0.00000047
     atom  103 type  2   force =    -0.00000063    0.00000019   -0.00000110
     atom  104 type  2   force =     0.00000016   -0.00000012   -0.00000104
     atom  105 type  2   force =    -0.00000041    0.00000033   -0.00000093
     atom  106 type  2   force =    -0.00000054   -0.00000023   -0.00000002
     atom  107 type  2   force =     0.00000071   -0.00000041    0.00000015
     atom  108 type  2   force =    -0.00000021    0.00000026   -0.00000001
     atom  109 type  2   force =    -0.00000063    0.00000011    0.00000060
     atom  110 type  2   force =     0.00000060   -0.00000006    0.00000076
     atom  111 type  2   force =    -0.00000050    0.00000011    0.00000060
     atom  112 type  2   force =    -0.00000027    0.00000064    0.00000057
     atom  113 type  2   force =     0.00000032   -0.00000055    0.00000063
     atom  114 type  2   force =     0.00000019   -0.00000053    0.00000114
     atom  115 type  2   force =     0.00000058   -0.00000009   -0.00000006
     atom  116 type  2   force =    -0.00000042   -0.00000086   -0.00000015
     atom  117 type  2   force =     0.00000011    0.00000022    0.00000009
     atom  118 type  2   force =    -0.00000026   -0.00000037   -0.00000025
     atom  119 type  2   force =    -0.00000066    0.00000003   -0.00000020
     atom  120 type  2   force =     0.00000083    0.00000020   -0.00000088

     Total force =     0.004584     Total SCF correction =     0.000008

     Writing all to output data dir ./scratch/alpha-al2o3.save/
 
     init_run     :      7.94s CPU      5.20s WALL (       1 calls)
     electrons    :     88.47s CPU     48.61s WALL (       1 calls)
     forces       :      0.96s CPU      0.59s WALL (       1 calls)

     Called by init_run:
     wfcinit      :      6.46s CPU      3.92s WALL (       1 calls)
     potinit      :      0.59s CPU      0.32s WALL (       1 calls)
     hinit0       :      0.69s CPU      0.66s WALL (       1 calls)

     Called by electrons:
     c_bands      :     77.94s CPU     42.97s WALL (      11 calls)
     sum_band     :      9.29s CPU      4.77s WALL (      11 calls)
     v_of_rho     :      0.60s CPU      0.32s WALL (      12 calls)
     mix_rho      :      0.16s CPU      0.09s WALL (      11 calls)

     Called by c_bands:
     init_us_2    :      0.25s CPU      0.14s WALL (      48 calls)
     init_us_2:cp :      0.25s CPU      0.14s WALL (      48 calls)
     cegterg      :     71.75s CPU     37.76s WALL (      22 calls)

     Called by *egterg:
     cdiaghg      :      7.36s CPU      3.98s WALL (      72 calls)
     h_psi        :     48.68s CPU     25.03s WALL (      74 calls)
     g_psi        :      0.15s CPU      0.08s WALL (      50 calls)

     Called by h_psi:
     h_psi:calbec :      2.67s CPU      1.37s WALL (      74 calls)
     vloc_psi     :     43.41s CPU     22.25s WALL (      74 calls)
     add_vuspsi   :      2.30s CPU      1.19s WALL (      74 calls)

     General routines
     calbec       :      2.98s CPU      1.52s WALL (      82 calls)
     fft          :      0.80s CPU      0.62s WALL (     121 calls)
     ffts         :      0.18s CPU      0.09s WALL (      11 calls)
     fftw         :     47.01s CPU     24.10s WALL (   45956 calls)
 
     Parallel routines
 
     PWSCF        :   1m39.78s CPU     58.53s WALL

 
   This run was terminated on:  12:35:51  18May2024            

=------------------------------------------------------------------------------=
   JOB DONE.
=------------------------------------------------------------------------------=
