<UPF version="2.0.1">
  <PP_INFO>
    Generated using "atomic" code by A. Dal Corso  v.7.2
    Author: anonymous
    Generation date: 30Nov2023
    Pseudopotential type: NC
    Element: Ag
    Functional: PBE
    Suggested minimum cutoff for wavefunctions:   0. Ry
    Suggested minimum cutoff for charge density:   0. Ry
    The Pseudo was generated with a Scalar-Relativistic Calculation
    Local Potential by smoothing AE potential with Bessel fncs, cutoff radius:   1.1000
    Pseudopotential contains additional information for GIPAW reconstruction.
    Valence configuration: 
    nl pn  l   occ       Rcut    Rcut US       E pseu
    4S  1  0  2.00      0.900      0.900    -7.291089
    5S  2  0  2.00      0.900      0.900    -0.408048
    4P  2  1  6.00      0.900      0.900    -4.597528
    5P  3  1  0.00      0.900      0.900    -0.090334
    4D  3  2  9.00      0.900      0.900    -0.786980
    Generation configuration:
    4S  1  0  2.00      0.900      0.900    -7.290883
    5S  2  0  2.00      0.900      0.900    -0.408065
    4P  2  1  6.00      0.900      0.900    -4.597432
    5P  3  1  0.00      0.900      0.900    -0.090334
    4D  3  2  9.00      0.900      0.900    -0.787181
    4D  3  2 -1.00      0.900      0.900     0.500000
    Pseudization used: troullier-martins
    <PP_INPUTFILE>
@input
title = 'Ag'
prefix = 'ag'
verbosity = 'high'
zed = 47
config = '[Kr] 5s2 5p0 4d9 5d0'
dft = 'pbe'
rel = 1
iswitch = 3
beta = 0.2
xmin = -8.0, dx = 0.01
nld = 4, rlderiv = 2.3, eminld  = -5.0, emaxld  = 5.0, deld = 0.002
/
@inputp
pseudotype = 2
lloc = -1
rcloc = 1.10
tm = .true.

nlcc = .true.
new_core_ps = .true.
rcore = 0.7
file_core = 'ag.core'

file_pseudopw = 'Ag.pbe-nc-semi-gipaw-sf.UPF'
lgipaw_reconstruction = .true.
/
6
4S  1  0  2.0  0.00  0.90  1.10
5S  2  0  2.0  0.00  0.90  1.10
4P  2  1  6.0  0.00  0.90  1.10
5P  3  1  0.0  0.00  0.90  1.10
4D  3  2  9.0  0.00  0.90  1.10
4D  3  2 -1.0  0.50  0.90  1.10
@test
ecutmin = 40
ecutmax = 150
decut   = 10
/
6
4S  1  0  2.0  0.00  0.90  1.10
5S  2  0  2.0  0.00  0.90  1.10
4P  2  1  6.0  0.00  0.90  1.10
5P  3  1  0.0  0.00  0.90  1.10
4D  3  2  9.0  0.00  0.90  1.10
5D  4  2 -1.0  0.50  0.90  1.10
    </PP_INPUTFILE>
  </PP_INFO>
    <!-- END OF HUMAN READABLE SECTION -->
  <PP_HEADER generated="Generated using 'atomic' code by A. Dal Corso  v.7.2" author="anonymous" date="30Nov2023" comment="" element="Ag" pseudo_type="NC" relativistic="scalar" is_ultrasoft="false" is_paw="false" is_coulomb="false" has_so="false" has_wfc="false" has_gipaw="true" paw_as_gipaw="false" core_correction="true" functional="PBE" z_valence="19.000000000000000" total_psenergy="-334.52452329894618" wfc_cutoff="0.0000000000000000" rho_cutoff="0.0000000000000000" l_max="2" l_max_rho="4" l_local="-1" mesh_size="1647" number_of_wfc="6" number_of_proj="6"/>
  <PP_MESH mesh="1647" dx="1.0000000000000000E-002" xmin="-8.0000000000000000" rmax="100.00000000000000" zmesh="47.000000000000000">
    <PP_R>
   7.137502721330039E-06   7.209235816243109E-06   7.281689840745519E-06
   7.354872040300105E-06   7.428789733187796E-06   7.503450311239484E-06
   7.578861240575193E-06   7.655030062350704E-06   7.731964393511656E-06
   7.809671927555285E-06   7.888160435299750E-06   7.967437765661240E-06
   8.047511846438846E-06   8.128390685107377E-06   8.210082369618099E-06
   8.292595069207549E-06   8.375937035214431E-06   8.460116601904805E-06
   8.545142187305490E-06   8.631022294045890E-06   8.717765510208230E-06
   8.805380510186419E-06   8.893876055553466E-06   8.983260995937666E-06
   9.073544269907529E-06   9.164734905865693E-06   9.256842022951748E-06
   9.349874831954159E-06   9.443842636231362E-06   9.538754832642076E-06
   9.634620912485042E-06   9.731450462448134E-06   9.829253165567049E-06
   9.928038802193584E-06   1.002781725097373E-05   1.012859848983552E-05
   1.023039259698682E-05   1.033320975192317E-05   1.043706023644576E-05
   1.054195443568956E-05   1.064790283916193E-05   1.075491604179150E-05
   1.086300474498770E-05   1.097217975771093E-05   1.108245199755346E-05
   1.119383249183114E-05   1.130633237868623E-05   1.141996290820117E-05
   1.153473544352360E-05   1.165066146200268E-05   1.176775255633689E-05
   1.188602043573322E-05   1.200547692707817E-05   1.212613397612043E-05
   1.224800364866545E-05   1.237109813178203E-05   1.249542973502109E-05
   1.262101089164653E-05   1.274785415987868E-05   1.287597222415007E-05
   1.300537789637388E-05   1.313608411722519E-05   1.326810395743499E-05
   1.340145061909732E-05   1.353613743698947E-05   1.367217787990549E-05
   1.380958555200300E-05   1.394837419416374E-05   1.408855768536758E-05
   1.423015004408048E-05   1.437316542965626E-05   1.451761814375269E-05
   1.466352263176156E-05   1.481089348425325E-05   1.495974543843581E-05
   1.511009337962870E-05   1.526195234275135E-05   1.541533751382661E-05
   1.557026423149942E-05   1.572674798857063E-05   1.588480443354637E-05
   1.604444937220285E-05   1.620569876916696E-05   1.636856874951278E-05
   1.653307560037407E-05   1.669923577257302E-05   1.686706588226530E-05
   1.703658271260173E-05   1.720780321540662E-05   1.738074451287294E-05
   1.755542389927457E-05   1.773185884269567E-05   1.791006698677764E-05
   1.809006615248339E-05   1.827187433987951E-05   1.845550972993622E-05
   1.864099068634557E-05   1.882833575735776E-05   1.901756367763603E-05
   1.920869337013008E-05   1.940174394796843E-05   1.959673471636975E-05
   1.979368517457338E-05   1.999261501778928E-05   2.019354413916751E-05
   2.039649263178766E-05   2.060148079066814E-05   2.080852911479563E-05
   2.101765830917510E-05   2.122888928690026E-05   2.144224317124490E-05
   2.165774129777529E-05   2.187540521648361E-05   2.209525669394315E-05
   2.231731771548488E-05   2.254161048739596E-05   2.276815743914052E-05
   2.299698122560252E-05   2.322810472935130E-05   2.346155106292983E-05
   2.369734357116603E-05   2.393550583350718E-05   2.417606166637800E-05
   2.441903512556226E-05   2.466445050860833E-05   2.491233235725903E-05
   2.516270545990580E-05   2.541559485406756E-05   2.567102582889448E-05
   2.592902392769686E-05   2.618961495049960E-05   2.645282495662216E-05
   2.671868026728446E-05   2.698720746823912E-05   2.725843341243003E-05
   2.753238522267762E-05   2.780909029439122E-05   2.808857629830857E-05
   2.837087118326296E-05   2.865600317897818E-05   2.894400079889136E-05
   2.923489284300450E-05   2.952870840076445E-05   2.982547685397180E-05
   3.012522787971919E-05   3.042799145335903E-05   3.073379785150092E-05
   3.104267765503954E-05   3.135466175221268E-05   3.166978134168999E-05
   3.198806793569303E-05   3.230955336314645E-05   3.263426977286092E-05
   3.296224963674801E-05   3.329352575306737E-05   3.362813124970674E-05
   3.396609958749466E-05   3.430746456354646E-05   3.465226031464427E-05
   3.500052132065052E-05   3.535228240795604E-05   3.570757875296272E-05
   3.606644588560108E-05   3.642891969288347E-05   3.679503642249270E-05
   3.716483268640680E-05   3.753834546456033E-05   3.791561210854237E-05
   3.829667034533173E-05   3.868155828106961E-05   3.907031440487037E-05
   3.946297759267028E-05   3.985958711111539E-05   4.026018262148808E-05
   4.066480418367314E-05   4.107349226016403E-05   4.148628772010895E-05
   4.190323184339790E-05   4.232436632479072E-05   4.274973327808639E-05
   4.317937524033476E-05   4.361333517609015E-05   4.405165648170767E-05
   4.449438298968320E-05   4.494155897303647E-05   4.539322914973847E-05
   4.584943868718329E-05   4.631023320670480E-05   4.677565878813896E-05
   4.724576197443182E-05   4.772058977629369E-05   4.820018967690047E-05
   4.868460963664190E-05   4.917389809791764E-05   4.966810398998156E-05
   5.016727673383474E-05   5.067146624716746E-05   5.118072294935126E-05
   5.169509776648080E-05   5.221464213646632E-05   5.273940801417784E-05
   5.326944787664043E-05   5.380481472828203E-05   5.434556210623400E-05
   5.489174408568468E-05   5.544341528528720E-05   5.600063087262129E-05
   5.656344656970994E-05   5.713191865859193E-05   5.770610398694986E-05
   5.828605997379507E-05   5.887184461520954E-05   5.946351649014561E-05
   6.006113476628375E-05   6.066475920594967E-05   6.127445017209028E-05
   6.189026863431030E-05   6.251227617496915E-05   6.314053499533923E-05
   6.377510792182614E-05   6.441605841225140E-05   6.506345056219802E-05
   6.571734911142067E-05   6.637781945031903E-05   6.704492762647748E-05
   6.771874035126951E-05   6.839932500652914E-05   6.908674965128907E-05
   6.978108302858667E-05   7.048239457233813E-05   7.119075441428244E-05
   7.190623339099395E-05   7.262890305096660E-05   7.335883566176865E-05
   7.409610421726943E-05   7.484078244493890E-05   7.559294481322039E-05
   7.635266653897761E-05   7.712002359501608E-05   7.789509271768103E-05
   7.867795141453047E-05   7.946867797208654E-05   8.026735146366394E-05
   8.107405175727738E-05   8.188885952362850E-05   8.271185624417299E-05
   8.354312421926860E-05   8.438274657640571E-05   8.523080727851958E-05
   8.608739113238721E-05   8.695258379710780E-05   8.782647179266885E-05
   8.870914250859812E-05   8.960068421270288E-05   9.050118605989628E-05
   9.141073810111368E-05   9.232943129231699E-05   9.325735750359099E-05
   9.419460952833003E-05   9.514128109251770E-05   9.609746686409927E-05
   9.706326246244876E-05   9.803876446793089E-05   9.902407043155897E-05
   1.000192788847506E-04   1.010244893491804E-04   1.020398023467324E-04
   1.030653194095525E-04   1.041011430902016E-04   1.051473769719110E-04
   1.062041256789408E-04   1.072714948870421E-04   1.083495913340254E-04
   1.094385228304337E-04   1.105383982703241E-04   1.116493276421571E-04
   1.127714220397958E-04   1.139047936736149E-04   1.150495558817225E-04
   1.162058231412932E-04   1.173737110800165E-04   1.185533364876595E-04
   1.197448173277461E-04   1.209482727493531E-04   1.221638230990256E-04
   1.233915899328115E-04   1.246316960284174E-04   1.258842653974863E-04
   1.271494232979988E-04   1.284272962467994E-04   1.297180120322476E-04
   1.310216997269978E-04   1.323384897009058E-04   1.336685136340663E-04
   1.350119045299811E-04   1.363687967288592E-04   1.377393259210512E-04
   1.391236291606185E-04   1.405218448790385E-04   1.419341128990484E-04
   1.433605744486270E-04   1.448013721751179E-04   1.462566501594946E-04
   1.477265539307684E-04   1.492112304805410E-04   1.507108282777048E-04
   1.522254972832890E-04   1.537553889654567E-04   1.553006563146507E-04
   1.568614538588939E-04   1.584379376792412E-04   1.600302654253886E-04
   1.616385963314376E-04   1.632630912318189E-04   1.649039125773766E-04
   1.665612244516122E-04   1.682351925870945E-04   1.699259843820320E-04
   1.716337689170131E-04   1.733587169719145E-04   1.751010010429794E-04
   1.768607953600664E-04   1.786382759040740E-04   1.804336204245376E-04
   1.822470084574056E-04   1.840786213429922E-04   1.859286422441126E-04
   1.877972561643984E-04   1.896846499667990E-04   1.915910123922672E-04
   1.935165340786346E-04   1.954614075796739E-04   1.974258273843562E-04
   1.994099899362991E-04   2.014140936534111E-04   2.034383389477342E-04
   2.054829282454844E-04   2.075480660072958E-04   2.096339587486650E-04
   2.117408150606049E-04   2.138688456305018E-04   2.160182632631865E-04
   2.181892829022132E-04   2.203821216513552E-04   2.225969987963148E-04
   2.248341358266522E-04   2.270937564579346E-04   2.293760866541083E-04
   2.316813546500947E-04   2.340097909746145E-04   2.363616284732406E-04
   2.387371023316826E-04   2.411364500993061E-04   2.435599117128875E-04
   2.460077295206071E-04   2.484801483062862E-04   2.509774153138633E-04
   2.534997802721202E-04   2.560474954196548E-04   2.586208155301050E-04
   2.612199979376263E-04   2.638453025626254E-04   2.664969919377529E-04
   2.691753312341554E-04   2.718805882879951E-04   2.746130336272313E-04
   2.773729404986752E-04   2.801605848953139E-04   2.829762455839099E-04
   2.858202041328788E-04   2.886927449404454E-04   2.915941552630839E-04
   2.945247252442450E-04   2.974847479433683E-04   3.004745193651907E-04
   3.034943384893458E-04   3.065445073002628E-04   3.096253308173643E-04
   3.127371171255699E-04   3.158801774061028E-04   3.190548259676110E-04
   3.222613802775956E-04   3.255001609941599E-04   3.287714919980748E-04
   3.320757004251666E-04   3.354131166990316E-04   3.387840745640784E-04
   3.421889111189028E-04   3.456279668499972E-04   3.491015856658013E-04
   3.526101149310905E-04   3.561539055017156E-04   3.597333117596868E-04
   3.633486916486126E-04   3.670004067094950E-04   3.706888221168833E-04
   3.744143067153913E-04   3.781772330565842E-04   3.819779774362312E-04
   3.858169199319378E-04   3.896944444411527E-04   3.936109387195583E-04
   3.975667944198464E-04   4.015624071308828E-04   4.055981764172689E-04
   4.096745058592962E-04   4.137918030933064E-04   4.179504798524532E-04
   4.221509520078784E-04   4.263936396102982E-04   4.306789669320081E-04
   4.350073625093120E-04   4.393792591853737E-04   4.437950941535046E-04
   4.482553090008814E-04   4.527603497527059E-04   4.573106669168069E-04
   4.619067155286930E-04   4.665489551970555E-04   4.712378501497303E-04
   4.759738692801192E-04   4.807574861940822E-04   4.855891792572972E-04
   4.904694316430975E-04   4.953987313807874E-04   5.003775714044491E-04
   5.054064496022339E-04   5.104858688661528E-04   5.156163371423644E-04
   5.207983674819717E-04   5.260324780923274E-04   5.313191923888546E-04
   5.366590390473877E-04   5.420525520570429E-04   5.475002707736158E-04
   5.530027399735183E-04   5.585605099082547E-04   5.641741363594506E-04
   5.698441806944293E-04   5.755712099223490E-04   5.813557967509057E-04
   5.871985196436018E-04   5.930999628775961E-04   5.990607166021297E-04
   6.050813768975429E-04   6.111625458348816E-04   6.173048315361075E-04
   6.235088482349094E-04   6.297752163381279E-04   6.361045624877940E-04
   6.424975196237979E-04   6.489547270471805E-04   6.554768304840657E-04
   6.620644821502314E-04   6.687183408163343E-04   6.754390718737859E-04
   6.822273474012933E-04   6.890838462320649E-04   6.960092540216982E-04
   7.030042633167432E-04   7.100695736239596E-04   7.172058914802642E-04
   7.244139305233904E-04   7.316944115632492E-04   7.390480626540117E-04
   7.464756191669157E-04   7.539778238638008E-04   7.615554269713893E-04
   7.692091862563067E-04   7.769398671008599E-04   7.847482425795747E-04
   7.926350935365065E-04   8.006012086633235E-04   8.086473845781774E-04
   8.167744259053633E-04   8.249831453557875E-04   8.332743638082354E-04
   8.416489103914627E-04   8.501076225671047E-04   8.586513462134287E-04
   8.672809357099194E-04   8.759972540227181E-04   8.848011727909188E-04
   8.936935724137351E-04   9.026753421385401E-04   9.117473801497915E-04
   9.209105936588493E-04   9.301658989947009E-04   9.395142216955928E-04
   9.489564966015854E-04   9.584936679480387E-04   9.681266894600334E-04
   9.778565244477489E-04   9.876841459027926E-04   9.976105365955001E-04
   1.007636689173211E-03   1.017763606259540E-03   1.027992300554633E-03
   1.038323794936446E-03   1.048759122563025E-03   1.059299326975829E-03
   1.069945462204082E-03   1.080698592870181E-03   1.091559794296152E-03
   1.102530152611188E-03   1.113610764860263E-03   1.124802739113838E-03
   1.136107194578662E-03   1.147525261709702E-03   1.159058082323189E-03
   1.170706809710793E-03   1.182472608754959E-03   1.194356656045398E-03
   1.206360139996743E-03   1.218484260967390E-03   1.230730231379542E-03
   1.243099275840443E-03   1.255592631264848E-03   1.268211546998709E-03
   1.280957284944119E-03   1.293831119685489E-03   1.306834338617024E-03
   1.319968242071453E-03   1.333234143450068E-03   1.346633369354058E-03
   1.360167259717182E-03   1.373837167939755E-03   1.387644461023990E-03
   1.401590519710702E-03   1.415676738617380E-03   1.429904526377654E-03
   1.444275305782159E-03   1.458790513920807E-03   1.473451602326510E-03
   1.488260037120327E-03   1.503217299158077E-03   1.518324884178427E-03
   1.533584302952470E-03   1.548997081434800E-03   1.564564760916108E-03
   1.580288898177317E-03   1.596171065645255E-03   1.612212851549904E-03
   1.628415860083223E-03   1.644781711559570E-03   1.661312042577727E-03
   1.678008506184573E-03   1.694872772040383E-03   1.711906526585797E-03
   1.729111473210462E-03   1.746489332423379E-03   1.764041842024950E-03
   1.781770757280766E-03   1.799677851097122E-03   1.817764914198324E-03
   1.836033755305755E-03   1.854486201318752E-03   1.873124097497289E-03
   1.891949307646518E-03   1.910963714303141E-03   1.930169218923671E-03
   1.949567742074572E-03   1.969161223624325E-03   1.988951622937414E-03
   2.008940919070262E-03   2.029131110969141E-03   2.049524217670065E-03
   2.070122278500697E-03   2.090927353284287E-03   2.111941522545653E-03
   2.133166887719229E-03   2.154605571359221E-03   2.176259717351860E-03
   2.198131491129793E-03   2.220223079888618E-03   2.242536692805624E-03
   2.265074561260698E-03   2.287838939059468E-03   2.310832102658681E-03
   2.334056351393860E-03   2.357514007709231E-03   2.381207417389977E-03
   2.405138949796806E-03   2.429310998102904E-03   2.453725979533245E-03
   2.478386335606320E-03   2.503294532378282E-03   2.528453060689567E-03
   2.553864436413973E-03   2.579531200710247E-03   2.605455920276212E-03
   2.631641187605422E-03   2.658089621246434E-03   2.684803866064654E-03
   2.711786593506826E-03   2.739040501868175E-03   2.766568316562253E-03
   2.794372790393469E-03   2.822456703832378E-03   2.850822865293723E-03
   2.879474111417292E-03   2.908413307351571E-03   2.937643347040274E-03
   2.967167153511723E-03   2.996987679171170E-03   3.027107906096033E-03
   3.057530846334106E-03   3.088259542204761E-03   3.119297066603195E-03
   3.150646523307711E-03   3.182311047290109E-03   3.214293805029168E-03
   3.246597994827317E-03   3.279226847130455E-03   3.312183624851008E-03
   3.345471623694206E-03   3.379094172487675E-03   3.413054633514313E-03
   3.447356402848526E-03   3.482002910695833E-03   3.516997621735884E-03
   3.552344035468951E-03   3.588045686565861E-03   3.624106145221479E-03
   3.660529017511714E-03   3.697317945754152E-03   3.734476608872273E-03
   3.772008722763359E-03   3.809918040670070E-03   3.848208353555789E-03
   3.886883490483715E-03   3.925947318999774E-03   3.965403745519363E-03
   4.005256715718017E-03   4.045510214925968E-03   4.086168268526686E-03
   4.127234942359404E-03   4.168714343125731E-03   4.210610618800311E-03
   4.252927959045629E-03   4.295670595630967E-03   4.338842802855606E-03
   4.382448897976243E-03   4.426493241638732E-03   4.470980238314146E-03
   4.515914336739215E-03   4.561300030361233E-03   4.607141857787383E-03
   4.653444403238614E-03   4.700212297008048E-03   4.747450215924038E-03
   4.795162883817844E-03   4.843355071996018E-03   4.892031599717530E-03
   4.941197334675720E-03   4.990857193485056E-03   5.041016142172806E-03
   5.091679196675630E-03   5.142851423341201E-03   5.194537939434831E-03
   5.246743913651204E-03   5.299474566631240E-03   5.352735171484181E-03
   5.406531054314900E-03   5.460867594756512E-03   5.515750226508332E-03
   5.571184437879278E-03   5.627175772336680E-03   5.683729829060644E-03
   5.740852263503978E-03   5.798548787957716E-03   5.856825172122391E-03
   5.915687243684980E-03   5.975140888901700E-03   6.035192053186605E-03
   6.095846741706172E-03   6.157111019979799E-03   6.218991014486373E-03
   6.281492913276899E-03   6.344622966593349E-03   6.408387487493660E-03
   6.472792852483067E-03   6.537845502151730E-03   6.603551941818830E-03
   6.669918742183091E-03   6.736952539979859E-03   6.804660038644766E-03
   6.873048008984106E-03   6.942123289851903E-03   7.011892788833813E-03
   7.082363482937865E-03   7.153542419292200E-03   7.225436715849768E-03
   7.298053562100140E-03   7.371400219788459E-03   7.445484023641605E-03
   7.520312382101706E-03   7.595892778066963E-03   7.672232769639967E-03
   7.749339990883476E-03   7.827222152583880E-03   7.905887043022248E-03
   7.985342528753187E-03   8.065596555391467E-03   8.146657148406639E-03
   8.228532413925555E-03   8.311230539543007E-03   8.394759795140452E-03
   8.479128533713068E-03   8.564345192205020E-03   8.650418292353178E-03
   8.737356441539269E-03   8.825168333650669E-03   8.913862749949765E-03
   9.003448559952108E-03   9.093934722313337E-03   9.185330285725100E-03
   9.277644389819905E-03   9.370886266085088E-03   9.465065238785986E-03
   9.560190725898334E-03   9.656272240050124E-03   9.753319389472838E-03
   9.851341878962304E-03   9.950349510849135E-03   1.005035218597904E-02
   1.015135990470286E-02   1.025338276787665E-02   1.035643097787174E-02
   1.046051483959500E-02   1.056564476151935E-02   1.067183125672459E-02
   1.077908494394872E-02   1.088741654864984E-02   1.099683690407871E-02
   1.110735695236205E-02   1.121898774559678E-02   1.133174044695526E-02
   1.144562633180158E-02   1.156065678881915E-02   1.167684332114950E-02
   1.179419754754270E-02   1.191273120351919E-02   1.203245614254334E-02
   1.215338433720883E-02   1.227552788043589E-02   1.239889898668063E-02
   1.252350999315649E-02   1.264937336106797E-02   1.277650167685673E-02
   1.290490765346029E-02   1.303460413158332E-02   1.316560408098173E-02
   1.329792060175960E-02   1.343156692567928E-02   1.356655641748454E-02
   1.370290257623706E-02   1.384061903666631E-02   1.397971957053312E-02
   1.412021808800679E-02   1.426212863905616E-02   1.440546541485457E-02
   1.455024274919906E-02   1.469647511994371E-02   1.484417715044748E-02
   1.499336361103646E-02   1.514404942048106E-02   1.529624964748779E-02
   1.544997951220619E-02   1.560525438775084E-02   1.576208980173868E-02
   1.592050143784181E-02   1.608050513735586E-02   1.624211690078412E-02
   1.640535288943758E-02   1.657022942705117E-02   1.673676300141603E-02
   1.690497026602839E-02   1.707486804175487E-02   1.724647331851462E-02
   1.741980325697834E-02   1.759487519028431E-02   1.777170662577175E-02
   1.795031524673157E-02   1.813071891417471E-02   1.831293566861826E-02
   1.849698373188949E-02   1.868288150894811E-02   1.887064758972675E-02
   1.906030075098997E-02   1.925185995821191E-02   1.944534436747294E-02
   1.964077332737523E-02   1.983816638097764E-02   2.003754326774998E-02
   2.023892392554711E-02   2.044232849260262E-02   2.064777730954272E-02
   2.085529092142033E-02   2.106489007976954E-02   2.127659574468085E-02
   2.149042908689719E-02   2.170641148993097E-02   2.192456455220248E-02
   2.214491008919977E-02   2.236747013566010E-02   2.259226694777362E-02
   2.281932300540887E-02   2.304866101436082E-02   2.328030390862149E-02
   2.351427485267335E-02   2.375059724380576E-02   2.398929471445483E-02
   2.423039113456644E-02   2.447391061398357E-02   2.471987750485709E-02
   2.496831640408107E-02   2.521925215575246E-02   2.547270985365553E-02
   2.572871484377130E-02   2.598729272681211E-02   2.624846936078179E-02
   2.651227086356131E-02   2.677872361552082E-02   2.704785426215755E-02
   2.731968971676045E-02   2.759425716310152E-02   2.787158405815419E-02
   2.815169813483906E-02   2.843462740479731E-02   2.872040016119158E-02
   2.900904498153571E-02   2.930059073055229E-02   2.959506656305915E-02
   2.989250192688497E-02   3.019292656581397E-02   3.049637052256041E-02
   3.080286414177289E-02   3.111243807306863E-02   3.142512327409879E-02
   3.174095101364406E-02   3.205995287474157E-02   3.238216075784327E-02
   3.270760688400598E-02   3.303632379811352E-02   3.336834437213122E-02
   3.370370180839326E-02   3.404242964292258E-02   3.438456174878498E-02
   3.473013233947616E-02   3.507917597234315E-02   3.543172755204013E-02
   3.578782233401884E-02   3.614749592805425E-02   3.651078430180554E-02
   3.687772378441269E-02   3.724835107012982E-02   3.762270322199437E-02
   3.800081767553348E-02   3.838273224250759E-02   3.876848511469166E-02
   3.915811486769439E-02   3.955166046481583E-02   3.994916126094350E-02
   4.035065700648835E-02   4.075618785135950E-02   4.116579434897940E-02
   4.157951746033914E-02   4.199739855809462E-02   4.241947943070386E-02
   4.284580228660594E-02   4.327640975844154E-02   4.371134490731678E-02
   4.415065122710902E-02   4.459437264881628E-02   4.504255354495053E-02
   4.549523873397485E-02   4.595247348478541E-02   4.641430352123829E-02
   4.688077502672210E-02   4.735193464877594E-02   4.782782950375473E-02
   4.830850718154057E-02   4.879401575030177E-02   4.928440376129982E-02
   4.977972025374448E-02   5.028001475969773E-02   5.078533730902721E-02
   5.129573843440875E-02   5.181126917638034E-02   5.233198108844576E-02
   5.285792624223015E-02   5.338915723268718E-02   5.392572718335860E-02
   5.446768975168660E-02   5.501509913437977E-02   5.556801007283234E-02
   5.612647785859903E-02   5.669055833892379E-02   5.726030792232474E-02
   5.783578358423500E-02   5.841704287270034E-02   5.900414391413398E-02
   5.959714541912930E-02   6.019610668833111E-02   6.080108761836522E-02
   6.141214870782893E-02   6.202935106334037E-02   6.265275640564945E-02
   6.328242707580989E-02   6.391842604141344E-02   6.456081690288668E-02
   6.520966389985117E-02   6.586503191754711E-02   6.652698649332250E-02
   6.719559382318657E-02   6.787092076842946E-02   6.855303486230850E-02
   6.924200431680148E-02   6.993789802942801E-02   7.064078559013939E-02
   7.135073728827716E-02   7.206782411960291E-02   7.279211779339735E-02
   7.352369073963141E-02   7.426261611620939E-02   7.500896781628472E-02
   7.576282047564935E-02   7.652424948019743E-02   7.729333097346409E-02
   7.807014186423929E-02   7.885475983425959E-02   7.964726334597581E-02
   8.044773165039959E-02   8.125624479502841E-02   8.207288363185049E-02
   8.289772982543005E-02   8.373086586107398E-02   8.457237505307981E-02
   8.542234155306816E-02   8.628085035839737E-02   8.714798732066333E-02
   8.802383915428494E-02   8.890849344517543E-02   8.980203865950108E-02
   9.070456415252813E-02   9.161616017755765E-02   9.253691789495200E-02
   9.346692938125019E-02   9.440628763837586E-02   9.535508660293754E-02
   9.631342115562237E-02   9.728138713068420E-02   9.825908132552719E-02
   9.924660151038575E-02   1.002440464381009E-01   1.012515158539970E-01
   1.022691105058549E-01   1.032969321539880E-01   1.043350835814175E-01
   1.053836686041513E-01   1.064427920815656E-01   1.075125599268909E-01
   1.085930791178028E-01   1.096844577071209E-01   1.107868048336138E-01
   1.119002307329127E-01   1.130248467485355E-01   1.141607653430207E-01
   1.153081001091745E-01   1.164669657814299E-01   1.176374782473193E-01
   1.188197545590650E-01   1.200139129452835E-01   1.212200728228083E-01
   1.224383548086326E-01   1.236688807319699E-01   1.249117736464383E-01
   1.261671578423647E-01   1.274351588592153E-01   1.287159034981479E-01
   1.300095198346939E-01   1.313161372315650E-01   1.326358863515897E-01
   1.339688991707799E-01   1.353153089915283E-01   1.366752504559390E-01
   1.380488595592919E-01   1.394362736636416E-01   1.408376315115549E-01
   1.422530732399845E-01   1.436827403942827E-01   1.451267759423564E-01
   1.465853242889636E-01   1.480585312901546E-01   1.495465442678575E-01
   1.510495120246093E-01   1.525675848584387E-01   1.541009145778940E-01
   1.556496545172248E-01   1.572139595517160E-01   1.587939861131743E-01
   1.603898922055727E-01   1.620018374208504E-01   1.636299829548724E-01
   1.652744916235485E-01   1.669355278791160E-01   1.686132578265849E-01
   1.703078492403479E-01   1.720194715809587E-01   1.737482960120776E-01
   1.754944954175884E-01   1.772582444188872E-01   1.790397193923433E-01
   1.808390984869389E-01   1.826565616420829E-01   1.844922906056055E-01
   1.863464689519327E-01   1.882192821004443E-01   1.901109173340158E-01
   1.920215638177475E-01   1.939514126178790E-01   1.959006567208991E-01
   1.978694910528423E-01   1.998581124987826E-01   2.018667199225218E-01
   2.038955141864761E-01   2.059446981717625E-01   2.080144767984872E-01
   2.101050570462381E-01   2.122166479747814E-01   2.143494607449700E-01
   2.165037086398583E-01   2.186796070860308E-01   2.208773736751456E-01
   2.230972281856930E-01   2.253393926049739E-01   2.276040911512992E-01
   2.298915502964099E-01   2.322019987881272E-01   2.345356676732256E-01
   2.368927903205384E-01   2.392736024442946E-01   2.416783421276905E-01
   2.441072498466985E-01   2.465605684941150E-01   2.490385434038482E-01
   2.515414223754547E-01   2.540694556989172E-01   2.566228961796749E-01
   2.592019991639037E-01   2.618070225640513E-01   2.644382268846285E-01
   2.670958752482601E-01   2.697802334219976E-01   2.724915698438945E-01
   2.752301556498528E-01   2.779962647007354E-01   2.807901736097523E-01
   2.836121617701228E-01   2.864625113830146E-01   2.893415074857642E-01
   2.922494379803817E-01   2.951865936623387E-01   2.981532682496515E-01
   3.011497584122512E-01   3.041763638016511E-01   3.072333870809124E-01
   3.103211339549103E-01   3.134399132009056E-01   3.165900366994223E-01
   3.197718194654344E-01   3.229855796798703E-01   3.262316387214299E-01
   3.295103211987221E-01   3.328219549827270E-01   3.361668712395829E-01
   3.395454044637026E-01   3.429578925112242E-01   3.464046766337966E-01
   3.498861015127034E-01   3.534025152933342E-01   3.569542696199974E-01
   3.605417196710855E-01   3.641652241945931E-01   3.678251455439921E-01
   3.715218497144676E-01   3.752557063795178E-01   3.790270889279194E-01
   3.828363745010708E-01   3.866839440307036E-01   3.905701822769772E-01
   3.944954778669547E-01   3.984602233334662E-01   4.024648151543623E-01
   4.065096537921631E-01   4.105951437341016E-01   4.147216935325773E-01
   4.188897158460086E-01   4.230996274801006E-01   4.273518494295249E-01
   4.316468069200197E-01   4.359849294509134E-01   4.403666508380742E-01
   4.447924092572931E-01   4.492626472880984E-01   4.537778119580194E-01
   4.583383547872856E-01   4.629447318339804E-01   4.675974037396472E-01