<PP_INFO>
Generated using Fritz-Haber code                                                
Author: unknown    Generation date: as well                                     
Info: automatically converted from FHI format                                   
    1        The Pseudo was generated with a Scalar-Relativistic Calculation
nl pn  l   occ               Rcut            Rcut US             E pseu
3s  0  0  2.00      0.00000000000      0.00000000000      0.00000000000
3p  0  1  5.00      0.00000000000      0.00000000000      0.00000000000
3d  0  2  0.00      0.00000000000      0.00000000000      0.00000000000
</PP_INFO>


<PP_HEADER>
   0                   Version Number
  Ar                   Element
   NC                  Norm - Conserving pseudopotential
    F                  Nonlinear Core Correction
SLA  PW   PBE  PBE     PBE  Exchange-Correlation functional
    8.00000000000      Z valence
    0.00000000000      Total energy
  0.0000000  0.0000000 Suggested cutoff for wfc and rho
    1                  Max angular momentum component
  507                  Number of points in mesh
    3    2             Number of Wavefunctions, Number of Projectors
 Wavefunctions         nl  l   occ
                       3s  0  2.00
                       3p  1  5.00
                       3d  2  0.00
</PP_HEADER>


<PP_MESH>
  <PP_R>
  3.47222222222E-04  3.55798611111E-04  3.64586836806E-04  3.73592131675E-04
  3.82819857327E-04  3.92275507803E-04  4.01964712846E-04  4.11893241253E-04
  4.22067004312E-04  4.32492059318E-04  4.43174613184E-04  4.54121026129E-04
  4.65337815475E-04  4.76831659517E-04  4.88609401507E-04  5.00678053724E-04
  5.13044801651E-04  5.25717008252E-04  5.38702218356E-04  5.52008163149E-04
  5.65642764779E-04  5.79614141069E-04  5.93930610353E-04  6.08600696429E-04
  6.23633133631E-04  6.39036872032E-04  6.54821082771E-04  6.70995163515E-04
  6.87568744054E-04  7.04551692032E-04  7.21954118825E-04  7.39786385560E-04
  7.58059109284E-04  7.76783169283E-04  7.95969713564E-04  8.15630165489E-04
  8.35776230577E-04  8.56419903472E-04  8.77573475088E-04  8.99249539923E-04
  9.21461003559E-04  9.44221090347E-04  9.67543351278E-04  9.91441672055E-04
  1.01593028135E-03  1.04102375930E-03  1.06673704616E-03  1.09308545120E-03
  1.12008466184E-03  1.14775075299E-03  1.17610019659E-03  1.20514987145E-03
  1.23491707327E-03  1.26541952498E-03  1.29667538725E-03  1.32870326931E-03
  1.36152224006E-03  1.39515183939E-03  1.42961208983E-03  1.46492350845E-03
  1.50110711910E-03  1.53818446495E-03  1.57617762123E-03  1.61510920847E-03
  1.65500240592E-03  1.69588096535E-03  1.73776922519E-03  1.78069212506E-03
  1.82467522055E-03  1.86974469849E-03  1.91592739255E-03  1.96325079914E-03
  2.01174309388E-03  2.06143314830E-03  2.11235054706E-03  2.16452560557E-03
  2.21798938803E-03  2.27277372592E-03  2.32891123695E-03  2.38643534450E-03
  2.44538029751E-03  2.50578119086E-03  2.56767398627E-03  2.63109553373E-03
  2.69608359342E-03  2.76267685817E-03  2.83091497657E-03  2.90083857649E-03
  2.97248928933E-03  3.04590977478E-03  3.12114374621E-03  3.19823599675E-03
  3.27723242586E-03  3.35818006678E-03  3.44112711443E-03  3.52612295416E-03
  3.61321819113E-03  3.70246468045E-03  3.79391555806E-03  3.88762527234E-03
  3.98364961657E-03  4.08204576210E-03  4.18287229242E-03  4.28618923804E-03
  4.39205811222E-03  4.50054194759E-03  4.61170533370E-03  4.72561445544E-03
  4.84233713249E-03  4.96194285966E-03  5.08450284830E-03  5.21009006865E-03
  5.33877929335E-03  5.47064714189E-03  5.60577212630E-03  5.74423469782E-03
  5.88611729485E-03  6.03150439203E-03  6.18048255052E-03  6.33314046952E-03
  6.48956903911E-03  6.64986139438E-03  6.81411297082E-03  6.98242156120E-03
  7.15488737376E-03  7.33161309189E-03  7.51270393526E-03  7.69826772246E-03
  7.88841493521E-03  8.08325878411E-03  8.28291527607E-03  8.48750328339E-03
  8.69714461449E-03  8.91196408647E-03  9.13208959941E-03  9.35765221251E-03
  9.58878622216E-03  9.82562924185E-03  1.00683222841E-02  1.03170098445E-02
  1.05718399877E-02  1.08329644354E-02  1.11005386570E-02  1.13747219618E-02
  1.16556775942E-02  1.19435728308E-02  1.22385790797E-02  1.25408719830E-02
  1.28506315210E-02  1.31680421196E-02  1.34932927599E-02  1.38265770911E-02
  1.41680935452E-02  1.45180454558E-02  1.48766411785E-02  1.52440942157E-02
  1.56206233428E-02  1.60064527394E-02  1.64018121220E-02  1.68069368814E-02
  1.72220682224E-02  1.76474533075E-02  1.80833454042E-02  1.85300040357E-02
  1.89876951354E-02  1.94566912052E-02  1.99372714780E-02  2.04297220835E-02
  2.09343362189E-02  2.14514143235E-02  2.19812642573E-02  2.25242014845E-02
  2.30805492612E-02  2.36506388279E-02  2.42348096070E-02  2.48334094042E-02
  2.54467946165E-02  2.60753304436E-02  2.67193911055E-02  2.73793600658E-02
  2.80556302594E-02  2.87486043269E-02  2.94586948537E-02  3.01863246166E-02
  3.09319268346E-02  3.16959454275E-02  3.24788352795E-02  3.32810625109E-02
  3.41031047549E-02  3.49454514424E-02  3.58086040930E-02  3.66930766141E-02
  3.75993956065E-02  3.85281006780E-02  3.94797447647E-02  4.04548944604E-02
  4.14541303536E-02  4.24780473733E-02  4.35272551434E-02  4.46023783455E-02
  4.57040570906E-02  4.68329473007E-02  4.79897210991E-02  4.91750672102E-02
  5.03896913703E-02  5.16343167471E-02  5.29096843708E-02  5.42165535748E-02
  5.55557024481E-02  5.69279282985E-02  5.83340481275E-02  5.97748991162E-02
  6.12513391244E-02  6.27642472008E-02  6.43145241066E-02  6.59030928521E-02
  6.75308992455E-02  6.91989124569E-02  7.09081255946E-02  7.26595562968E-02
  7.44542473373E-02  7.62932672465E-02  7.81777109475E-02  8.01087004079E-02
  8.20873853080E-02  8.41149437251E-02  8.61925828351E-02  8.83215396311E-02
  9.05030816600E-02  9.27385077770E-02  9.50291489191E-02  9.73763688974E-02
  9.97815652092E-02  1.02246169870E-01  1.04771650266E-01  1.07359510027E-01
  1.10011289925E-01  1.12728568786E-01  1.15512964435E-01  1.18366134657E-01
  1.21289778183E-01  1.24285635704E-01  1.27355490906E-01  1.30501171531E-01
  1.33724550468E-01  1.37027546864E-01  1.40412127272E-01  1.43880306815E-01
  1.47434150394E-01  1.51075773909E-01  1.54807345524E-01  1.58631086959E-01
  1.62549274806E-01  1.66564241894E-01  1.70678378669E-01  1.74894134622E-01
  1.79214019747E-01  1.83640606035E-01  1.88176529004E-01  1.92824489270E-01
  1.97587254155E-01  2.02467659333E-01  2.07468610519E-01  2.12593085198E-01
  2.17844134403E-01  2.23224884523E-01  2.28738539170E-01  2.34388381088E-01
  2.40177774101E-01  2.46110165121E-01  2.52189086199E-01  2.58418156629E-01
  2.64801085097E-01  2.71341671899E-01  2.78043811195E-01  2.84911493332E-01
  2.91948807217E-01  2.99159942755E-01  3.06549193341E-01  3.14120958417E-01
  3.21879746090E-01  3.29830175818E-01  3.37976981161E-01  3.46325012595E-01
  3.54879240406E-01  3.63644757645E-01  3.72626783158E-01  3.81830664702E-01
  3.91261882120E-01  4.00926050609E-01  4.10828924059E-01  4.20976398483E-01
  4.31374515526E-01  4.42029466059E-01  4.52947593871E-01  4.64135399439E-01
  4.75599543806E-01  4.87346852538E-01  4.99384319795E-01  5.11719112494E-01
  5.24358574573E-01  5.37310231365E-01  5.50581794080E-01  5.64181164393E-01
  5.78116439154E-01  5.92395915201E-01  6.07028094306E-01  6.22021688236E-01
  6.37385623935E-01  6.53129048846E-01  6.69261336353E-01  6.85792091361E-01
  7.02731156017E-01  7.20088615571E-01  7.37874804376E-01  7.56100312044E-01
  7.74775989751E-01  7.93912956698E-01  8.13522606728E-01  8.33616615115E-01
  8.54206945508E-01  8.75305857062E-01  8.96925911731E-01  9.19079981751E-01
  9.41781257300E-01  9.65043254356E-01  9.88879822738E-01  1.01330515436E+00
  1.03833379167E+00  1.06398063633E+00  1.09026095804E+00  1.11719040371E+00
  1.14478500668E+00  1.17306119634E+00  1.20203580789E+00  1.23172609235E+00
  1.26214972683E+00  1.29332482508E+00  1.32526994826E+00  1.35800411598E+00
  1.39154681765E+00  1.42591802405E+00  1.46113819924E+00  1.49722831276E+00
  1.53420985209E+00  1.57210483543E+00  1.61093582487E+00  1.65072593974E+00
  1.69149887045E+00  1.73327889255E+00  1.77609088120E+00  1.81996032597E+00
  1.86491334602E+00  1.91097670566E+00  1.95817783029E+00  2.00654482270E+00
  2.05610647982E+00  2.10689230987E+00  2.15893254993E+00  2.21225818391E+00
  2.26690096105E+00  2.32289341479E+00  2.38026888214E+00  2.43906152353E+00
  2.49930634316E+00  2.56103920983E+00  2.62429687832E+00  2.68911701121E+00
  2.75553820139E+00  2.82359999496E+00  2.89334291484E+00  2.96480848483E+00
  3.03803925441E+00  3.11307882399E+00  3.18997187094E+00  3.26876417616E+00
  3.34950265131E+00  3.43223536680E+00  3.51701158036E+00  3.60388176639E+00
  3.69289764602E+00  3.78411221788E+00  3.87757978966E+00  3.97335601046E+00
  4.07149790392E+00  4.17206390215E+00  4.27511388053E+00  4.38070919338E+00
  4.48891271046E+00  4.59978885440E+00  4.71340363911E+00  4.82982470899E+00
  4.94912137931E+00  5.07136467738E+00  5.19662738491E+00  5.32498408131E+00
  5.45651118812E+00  5.59128701447E+00  5.72939180373E+00  5.87090778128E+00
  6.01591920348E+00  6.16451240780E+00  6.31677586427E+00  6.47280022812E+00
  6.63267839376E+00  6.79650555008E+00  6.96437923717E+00  7.13639940433E+00
  7.31266846961E+00  7.49329138081E+00  7.67837567792E+00  7.86803155716E+00
  8.06237193663E+00  8.26151252346E+00  8.46557188279E+00  8.67467150830E+00
  8.88893589455E+00  9.10849261115E+00  9.33347237864E+00  9.56400914639E+00
  9.80024017231E+00  1.00423061046E+01  1.02903510653E+01  1.05445227367E+01
  1.08049724483E+01  1.10718552677E+01  1.13453300928E+01  1.16255597461E+01
  1.19127110719E+01  1.22069550353E+01  1.25084668247E+01  1.28174259553E+01
  1.31340163764E+01  1.34584265809E+01  1.37908497174E+01  1.41314837054E+01
  1.44805313530E+01  1.48382004774E+01  1.52047040292E+01  1.55802602187E+01
  1.59650926461E+01  1.63594304345E+01  1.67635083662E+01  1.71775670228E+01
  1.76018529283E+01  1.80366186956E+01  1.84821231774E+01  1.89386316199E+01
  1.94064158209E+01  1.98857542917E+01  2.03769324227E+01  2.08802426535E+01
  2.13959846471E+01  2.19244654678E+01  2.24659997649E+01  2.30209099591E+01
  2.35895264351E+01  2.41721877380E+01  2.47692407752E+01  2.53810410223E+01
  2.60079527356E+01  2.66503491681E+01  2.73086127926E+01  2.79831355286E+01
  2.86743189761E+01  2.93825746548E+01  3.01083242488E+01  3.08519998577E+01
  3.16140442542E+01  3.23949111473E+01  3.31950654527E+01  3.40149835693E+01
  3.48551536635E+01  3.57160759590E+01  3.65982630352E+01  3.75022401321E+01
  3.84285454634E+01  3.93777305363E+01  4.03503604806E+01  4.13470143845E+01
  4.23682856398E+01  4.34147822951E+01  4.44871274178E+01  4.55859594650E+01
  4.67119326638E+01  4.78657174005E+01  4.90480006203E+01  5.02594862357E+01
  5.15008955457E+01  5.27729676657E+01  5.40764599670E+01  5.54121485282E+01
  5.67808285968E+01  5.81833150632E+01  5.96204429452E+01  6.10930678860E+01
  6.26020666628E+01  6.41483377093E+01  6.57328016508E+01  6.73564018515E+01
  6.90201049773E+01  7.07249015702E+01  7.24718066390E+01  7.42618602630E+01
  7.60961282115E+01  7.79757025783E+01  7.99017024320E+01
  </PP_R>
  <PP_RAB>
  8.47218292484E-06  8.68144584308E-06  8.89587755541E-06  9.11560573102E-06
  9.34076119258E-06  9.57147799404E-06  9.80789350049E-06  1.00501484700E-05
  1.02983871372E-05  1.05527572994E-05  1.08134104047E-05  1.10805016417E-05
  1.13541900323E-05  1.16346385261E-05  1.19220140977E-05  1.22164878459E-05
  1.25182350957E-05  1.28274355026E-05  1.31442731595E-05  1.34689367065E-05
  1.38016194432E-05  1.41425194434E-05  1.44918396737E-05  1.48497881136E-05
  1.52165778800E-05  1.55924273536E-05  1.59775603093E-05  1.63722060489E-05
  1.67765995383E-05  1.71909815469E-05  1.76155987911E-05  1.80507040813E-05
  1.84965564721E-05  1.89534214169E-05  1.94215709259E-05  1.99012837278E-05
  2.03928454359E-05  2.08965487181E-05  2.14126934715E-05  2.19415870002E-05
  2.24835441991E-05  2.30388877409E-05  2.36079482681E-05  2.41910645903E-05
  2.47885838857E-05  2.54008619076E-05  2.60282631967E-05  2.66711612977E-05
  2.73299389818E-05  2.80049884746E-05  2.86967116899E-05  2.94055204687E-05
  3.01318368242E-05  3.08760931938E-05  3.16387326957E-05  3.24202093933E-05
  3.32209885653E-05  3.40415469829E-05  3.48823731933E-05  3.57439678112E-05
  3.66268438161E-05  3.75315268584E-05  3.84585555718E-05  3.94084818944E-05
  4.03818713972E-05  4.13793036207E-05  4.24013724202E-05  4.34486863189E-05
  4.45218688710E-05  4.56215590321E-05  4.67484115402E-05  4.79030973053E-05
  4.90863038087E-05  5.02987355128E-05  5.15411142800E-05  5.28141798027E-05
  5.41186900438E-05  5.54554216879E-05  5.68251706036E-05  5.82287523175E-05
  5.96670024997E-05  6.11407774615E-05  6.26509546648E-05  6.41984332450E-05
  6.57841345461E-05  6.74090026694E-05  6.90740050353E-05  7.07801329597E-05
  7.25284022438E-05  7.43198537793E-05  7.61555541676E-05  7.80365963555E-05
  7.99641002855E-05  8.19392135626E-05  8.39631121376E-05  8.60370010074E-05
  8.81621149322E-05  9.03397191711E-05  9.25711102346E-05  9.48576166574E-05
  9.72005997888E-05  9.96014546036E-05  1.02061610532E-04  1.04582532312E-04
  1.07165720861E-04  1.09812714166E-04  1.12525088206E-04  1.15304457884E-04
  1.18152477994E-04  1.21070844201E-04  1.24061294052E-04  1.27125608015E-04
  1.30265610533E-04  1.33483171114E-04  1.36780205440E-04  1.40158676515E-04
  1.43620595824E-04  1.47168024541E-04  1.50803074747E-04  1.54527910694E-04
  1.58344750088E-04  1.62255865415E-04  1.66263585291E-04  1.70370295847E-04
  1.74578442155E-04  1.78890529676E-04  1.83309125759E-04  1.87836861165E-04
  1.92476431636E-04  1.97230599498E-04  2.02102195305E-04  2.07094119529E-04
  2.12209344282E-04  2.17450915085E-04  2.22821952688E-04  2.28325654919E-04
  2.33965298596E-04  2.39744241471E-04  2.45665924235E-04  2.51733872564E-04
  2.57951699216E-04  2.64323106187E-04  2.70851886910E-04  2.77541928517E-04
  2.84397214151E-04  2.91421825340E-04  2.98619944426E-04  3.05995857054E-04
  3.13553954723E-04  3.21298737405E-04  3.29234816218E-04  3.37366916179E-04
  3.45699879009E-04  3.54238666020E-04  3.62988361071E-04  3.71954173589E-04
  3.81141441677E-04  3.90555635286E-04  4.00202359478E-04  4.10087357757E-04
  4.20216515494E-04  4.30595863426E-04  4.41231581253E-04  4.52130001310E-04
  4.63297612342E-04  4.74741063367E-04  4.86467167632E-04  4.98482906673E-04
  5.10795434468E-04  5.23412081699E-04  5.36340360117E-04  5.49587967012E-04
  5.63162789797E-04  5.77072910705E-04  5.91326611600E-04  6.05932378906E-04
  6.20898908665E-04  6.36235111709E-04  6.51950118968E-04  6.68053286907E-04
  6.84554203093E-04  7.01462691910E-04  7.18788820400E-04  7.36542904264E-04
  7.54735513999E-04  7.73377481195E-04  7.92479904980E-04  8.12054158633E-04
  8.32111896352E-04  8.52665060192E-04  8.73725887178E-04  8.95306916592E-04
  9.17420997431E-04  9.40081296068E-04  9.63301304081E-04  9.87094846292E-04
  1.01147608900E-03  1.03645954839E-03  1.06206009924E-03  1.08829298369E-03
  1.11517382039E-03  1.14271861375E-03  1.17094376351E-03  1.19986607447E-03
  1.22950276651E-03  1.25987148484E-03  1.29099031052E-03  1.32287777119E-03
  1.35555285213E-03  1.38903500758E-03  1.42334417227E-03  1.45850077332E-03
  1.49452574243E-03  1.53144052826E-03  1.56926710931E-03  1.60802800691E-03
  1.64774629868E-03  1.68844563226E-03  1.73015023938E-03  1.77288495029E-03
  1.81667520856E-03  1.86154708621E-03  1.90752729924E-03  1.95464322353E-03
  2.00292291115E-03  2.05239510706E-03  2.10308926620E-03  2.15503557108E-03
  2.20826494969E-03  2.26280909394E-03  2.31870047856E-03  2.37597238038E-03
  2.43465889818E-03  2.49479497296E-03  2.55641640880E-03  2.61955989409E-03
  2.68426302348E-03  2.75056432016E-03  2.81850325887E-03  2.88812028936E-03
  2.95945686051E-03  3.03255544496E-03  3.10745956445E-03  3.18421381569E-03
  3.26286389694E-03  3.34345663520E-03  3.42604001409E-03  3.51066320243E-03
  3.59737658353E-03  3.68623178515E-03  3.77728171024E-03  3.87058056848E-03
  3.96618390852E-03  4.06414865106E-03  4.16453312275E-03  4.26739709088E-03
  4.37280179902E-03  4.48081000346E-03  4.59148601054E-03  4.70489571500E-03
  4.82110663917E-03  4.94018797315E-03  5.06221061609E-03  5.18724721831E-03
  5.31537222460E-03  5.44666191855E-03  5.58119446793E-03  5.71904997129E-03
  5.86031050558E-03  6.00506017507E-03  6.15338516140E-03  6.30537377488E-03
  6.46111650712E-03  6.62070608485E-03  6.78423752514E-03  6.95180819201E-03
  7.12351785436E-03  7.29946874536E-03  7.47976562337E-03  7.66451583427E-03
  7.85382937537E-03  8.04781896095E-03  8.24660008928E-03  8.45029111149E-03
  8.65901330194E-03  8.87289093050E-03  9.09205133648E-03  9.31662500449E-03
  9.54674564210E-03  9.78255025946E-03  1.00241792509E-02  1.02717764784E-02
  1.05254893574E-02  1.07854689445E-02  1.10518700274E-02  1.13248512171E-02
  1.16045750422E-02  1.18912080457E-02  1.21849208845E-02  1.24858884303E-02
  1.27942898745E-02  1.31103088344E-02  1.34341334626E-02  1.37659565592E-02
  1.41059756862E-02  1.44543932856E-02  1.48114167998E-02  1.51772587947E-02
  1.55521370870E-02  1.59362748730E-02  1.63299008624E-02  1.67332494137E-02
  1.71465606742E-02  1.75700807228E-02  1.80040617167E-02  1.84487620411E-02
  1.89044464635E-02  1.93713862912E-02  1.98498595326E-02  2.03401510630E-02
  2.08425527943E-02  2.13573638483E-02  2.18848907353E-02  2.24254475365E-02
  2.29793560907E-02  2.35469461861E-02  2.41285557569E-02  2.47245310841E-02
  2.53352270019E-02  2.59610071088E-02  2.66022439844E-02  2.72593194108E-02
  2.79326246003E-02  2.86225604279E-02  2.93295376705E-02  3.00539772509E-02
  3.07963104890E-02  3.15569793581E-02  3.23364367482E-02  3.31351467359E-02
  3.39535848603E-02  3.47922384063E-02  3.56516066950E-02  3.65322013803E-02
  3.74345467544E-02  3.83591800593E-02  3.93066518067E-02  4.02775261064E-02
  4.12723810012E-02  4.22918088119E-02  4.33364164896E-02  4.44068259769E-02
  4.55036745785E-02  4.66276153406E-02  4.77793174395E-02  4.89594665803E-02
  5.01687654048E-02  5.14079339103E-02  5.26777098779E-02  5.39788493119E-02
  5.53121268899E-02  5.66783364240E-02  5.80782913337E-02  5.95128251297E-02
  6.09827919104E-02  6.24890668705E-02  6.40325468222E-02  6.56141507288E-02
  6.72348202518E-02  6.88955203120E-02  7.05972396637E-02  7.23409914834E-02
  7.41278139730E-02  7.59587709781E-02  7.78349526213E-02  7.97574759511E-02
  8.17274856070E-02  8.37461545015E-02  8.58146845177E-02  8.79343072253E-02
  9.01062846138E-02  9.23319098437E-02  9.46125080169E-02  9.69494369649E-02
  9.93440880579E-02  1.01797887033E-01  1.04312294843E-01  1.06888808525E-01
  1.09528962096E-01  1.12234327460E-01  1.15006515348E-01  1.17847176277E-01
  1.20758001531E-01  1.23740724169E-01  1.26797120056E-01  1.29929008921E-01
  1.33138255442E-01  1.36426770351E-01  1.39796511579E-01  1.43249485415E-01
  1.46787747704E-01  1.50413405073E-01  1.54128616178E-01  1.57935592998E-01
  1.61836602145E-01  1.65833966218E-01  1.69930065183E-01  1.74127337793E-01
  1.78428283037E-01  1.82835461628E-01  1.87351497530E-01  1.91979079519E-01
  1.96720962783E-01  2.01579970564E-01  2.06558995837E-01  2.11661003034E-01
  2.16889029809E-01  2.22246188845E-01  2.27735669709E-01  2.33360740751E-01
  2.39124751048E-01  2.45031132399E-01  2.51083401369E-01  2.57285161383E-01
  2.63640104869E-01  2.70152015459E-01  2.76824770241E-01  2.83662342066E-01
  2.90668801915E-01  2.97848321322E-01  3.05205174859E-01  3.12743742678E-01
  3.20468513122E-01  3.28384085396E-01  3.36495172306E-01  3.44806603061E-01
  3.53323326157E-01  3.62050412313E-01  3.70993057497E-01  3.80156586017E-01
  3.89546453692E-01  3.99168251098E-01  4.09027706900E-01  4.19130691261E-01
  4.29483219335E-01  4.40091454853E-01  4.50961713787E-01  4.62100468118E-01
  4.73514349681E-01  4.85210154118E-01  4.97194844924E-01  5.09475557594E-01
  5.22059603867E-01  5.34954476082E-01  5.48167851641E-01  5.61707597577E-01
  5.75581775237E-01  5.89798645085E-01  6.04366671619E-01  6.19294528408E-01
  6.34591103260E-01  6.50265503510E-01  6.66327061447E-01  6.82785339865E-01
  6.99650137759E-01  7.16931496162E-01  7.34639704117E-01  7.52785304809E-01
  7.71379101838E-01  7.90432165653E-01  8.09955840145E-01  8.29961749396E-01
  8.50461804606E-01  8.71468211180E-01  8.92993475996E-01  9.15050414853E-01
  9.37652160100E-01  9.60812168455E-01  9.84544229015E-01  1.00886247147E+00
  1.03378137452E+00  1.05931577447E+00  1.08548087410E+00  1.11229225169E+00
  1.13976587030E+00  1.16791808730E+00  1.19676566406E+00  1.22632577596E+00
  1.25661602263E+00  1.28765443838E+00  1.31945950301E+00  1.35205015274E+00
  1.38544579151E+00  1.41966630256E+00  1.45473206023E+00  1.49066394212E+00
  1.52748334149E+00  1.56521218003E+00  1.60387292087E+00  1.64348858202E+00
  1.68408274999E+00  1.72567959392E+00  1.76830387989E+00  1.81198098572E+00
  1.85673691607E+00  1.90259831790E+00  1.94959249635E+00
  </PP_RAB>
</PP_MESH>


<PP_LOCAL>
 -2.31670775158E+01 -2.31670923431E+01 -2.31671078811E+01 -2.31671241660E+01
 -2.31671412360E+01 -2.31671591309E+01 -2.31671778926E+01 -2.31671975653E+01
 -2.31672181950E+01 -2.31672398303E+01 -2.31672625220E+01 -2.31672863235E+01
 -2.31673112910E+01 -2.31673374832E+01 -2.31673649619E+01 -2.31673937921E+01
 -2.31674240417E+01 -2.31674557822E+01 -2.31674890887E+01 -2.31675240399E+01
 -2.31675607184E+01 -2.31675992111E+01 -2.31676396091E+01 -2.31676820079E+01
 -2.31677265081E+01 -2.31677732150E+01 -2.31678222392E+01 -2.31678736970E+01
 -2.31679277102E+01 -2.31679844070E+01 -2.31680439216E+01 -2.31681063953E+01
 -2.31681719761E+01 -2.31682408195E+01 -2.31683130888E+01 -2.31683889552E+01
 -2.31684685988E+01 -2.31685522084E+01 -2.31686399821E+01 -2.31687321282E+01
 -2.31688288651E+01 -2.31689304222E+01 -2.31690370401E+01 -2.31691489715E+01
 -2.31692664819E+01 -2.31693898496E+01 -2.31695193670E+01 -2.31696553408E+01
 -2.31697980931E+01 -2.31699479621E+01 -2.31701053024E+01 -2.31702704866E+01
 -2.31704439056E+01 -2.31706259697E+01 -2.31708171095E+01 -2.31710177769E+01
 -2.31712284463E+01 -2.31714496156E+01 -2.31716818072E+01 -2.31719255693E+01
 -2.31721814774E+01 -2.31724501353E+01 -2.31727321765E+01 -2.31730282659E+01
 -2.31733391012E+01 -2.31736654142E+01 -2.31740079732E+01 -2.31743675838E+01
 -2.31747450914E+01 -2.31751413830E+01 -2.31755573890E+01 -2.31759940853E+01
 -2.31764524957E+01 -2.31769336942E+01 -2.31774388069E+01 -2.31779690152E+01
 -2.31785255578E+01 -2.31791097339E+01 -2.31797229057E+01 -2.31803665015E+01
 -2.31810420188E+01 -2.31817510277E+01 -2.31824951739E+01 -2.31832761825E+01
 -2.31840958616E+01 -2.31849561062E+01 -2.31858589020E+01 -2.31868063295E+01
 -2.31878005688E+01 -2.31888439033E+01 -2.31899387251E+01 -2.31910875393E+01
 -2.31922929693E+01 -2.31935577619E+01 -2.31948847927E+01 -2.31962770717E+01
 -2.31977377490E+01 -2.31992701208E+01 -2.32008776359E+01 -2.32025639014E+01
 -2.32043326899E+01 -2.32061879457E+01 -2.32081337924E+01 -2.32101745392E+01
 -2.32123146890E+01 -2.32145589454E+01 -2.32169122205E+01 -2.32193796425E+01
 -2.32219665639E+01 -2.32246785694E+01 -2.32275214841E+01 -2.32305013815E+01
 -2.32336245919E+01 -2.32368977108E+01 -2.32403276070E+01 -2.32439214309E+01
 -2.32476866224E+01 -2.32516309190E+01 -2.32557623636E+01 -2.32600893120E+01
 -2.32646204397E+01 -2.32693647490E+01 -2.32743315749E+01 -2.32795305910E+01
 -2.32849718142E+01 -2.32906656088E+01 -2.32966226896E+01 -2.33028541244E+01
 -2.33093713339E+01 -2.33161860923E+01 -2.33233105243E+01 -2.33307571014E+01
 -2.33385386364E+01 -2.33466682751E+01 -2.33551594859E+01 -2.33640260466E+01
 -2.33732820288E+01 -2.33829417780E+01 -2.33930198916E+01 -2.34035311918E+01
 -2.34144906949E+01 -2.34259135767E+01 -2.34378151318E+01 -2.34502107287E+01
 -2.34631157590E+01 -2.34765455807E+01 -2.34905154551E+01 -2.35050404772E+01
 -2.35201354987E+01 -2.35358150443E+01 -2.35520932193E+01 -2.35689836098E+01
 -2.35864991748E+01 -2.36046521288E+01 -2.36234538168E+01 -2.36429145795E+01
 -2.36630436105E+01 -2.36838488037E+01 -2.37053365928E+01 -2.37275117817E+01
 -2.37503773678E+01 -2.37739343565E+01 -2.37981815695E+01 -2.38231154473E+01
 -2.38487298465E+01 -2.38750158326E+01 -2.39019614717E+01 -2.39295516207E+01
 -2.39577677184E+01 -2.39865875808E+01 -2.40159852011E+01 -2.40459305582E+01
 -2.40763894357E+01 -2.41073232550E+01 -2.41386889255E+01 -2.41704387149E+01
 -2.42025201426E+01 -2.42348759017E+01 -2.42674438107E+01 -2.43001568004E+01
 -2.43329429383E+01 -2.43657254954E+01 -2.43984230571E+01 -2.44309496828E+01
 -2.44632151156E+01 -2.44951250462E+01 -2.45265814316E+01 -2.45574828706E+01
 -2.45877250377E+01 -2.46172011744E+01 -2.46458026388E+01 -2.46734195119E+01
 -2.46999412585E+01 -2.47252574397E+01 -2.47492584746E+01 -2.47718364447E+01
 -2.47928859368E+01 -2.48123049177E+01 -2.48299956324E+01 -2.48458655183E+01
 -2.48598281254E+01 -2.48718040315E+01 -2.48817217424E+01 -2.48895185636E+01
 -2.48951414315E+01 -2.48985476901E+01 -2.48997057994E+01 -2.48985959606E+01
 -2.48952106459E+01 -2.48895550158E+01 -2.48816472144E+01 -2.48715185271E+01
 -2.48592133924E+01 -2.48447892584E+01 -2.48283162766E+01 -2.48098768311E+01
 -2.47895649021E+01 -2.47674852661E+01 -2.47437525411E+01 -2.47184900869E+01
 -2.46918287750E+01 -2.46639056467E+01 -2.46348624816E+01 -2.46048442991E+01
 -2.45739978223E+01 -2.45424699293E+01 -2.45104061235E+01 -2.44779490481E+01
 -2.44452370747E+01 -2.44124029876E+01 -2.43795727890E+01 -2.43468646397E+01
 -2.43143879530E+01 -2.42822426476E+01 -2.42505185680E+01 -2.42192950701E+01
 -2.41886407703E+01 -2.41586134478E+01 -2.41292600923E+01 -2.41006170791E+01
 -2.40727104591E+01 -2.40455563439E+01 -2.40191613685E+01 -2.39935232137E+01
 -2.39686311690E+01 -2.39444667214E+01 -2.39210041524E+01 -2.38982111321E+01
 -2.38760492964E+01 -2.38544748011E+01 -2.38334388426E+01 -2.38128881432E+01
 -2.37927653977E+01 -2.37730096796E+01 -2.37535568107E+01 -2.37343396956E+01
 -2.37152886266E+01 -2.36963315654E+01 -2.36773944076E+01 -2.36584012398E+01
 -2.36392745949E+01 -2.36199357170E+01 -2.36003048411E+01 -2.35803014979E+01
 -2.35598448473E+01 -2.35388540475E+01 -2.35172486624E+01 -2.34949491062E+01
 -2.34718771248E+01 -2.34479563063E+01 -2.34231126119E+01 -2.33972749141E+01
 -2.33703755231E+01 -2.33423506813E+01 -2.33131409991E+01 -2.32826918059E+01
 -2.32509533843E+01 -2.32178810574E+01 -2.31834351000E+01 -2.31475804457E+01
 -2.31102861679E+01 -2.30715247197E+01 -2.30312709240E+01 -2.29895007184E+01
 -2.29461896666E+01 -2.29013112617E+01 -2.28548350564E+01 -2.28067246620E+01
 -2.27569356690E+01 -2.27054135424E+01 -2.26520915477E+01 -2.25968887610E+01
 -2.25397082127E+01 -2.24804352070E+01 -2.24189358503E+01 -2.23550558147E+01
 -2.22886193529E+01 -2.22194285745E+01 -2.21472629867E+01 -2.20718793000E+01
 -2.19930114928E+01 -2.19103711310E+01 -2.18236479281E+01 -2.17325105320E+01
 -2.16366075077E+01 -2.15355684703E+01 -2.14290052932E+01 -2.13165132791E+01
 -2.11976721240E+01 -2.10720464448E+01 -2.09391855613E+01 -2.07986221624E+01
 -2.06498694460E+01 -2.04924163641E+01 -2.03257207922E+01 -2.01492008664E+01
 -1.99622254950E+01 -1.97641062264E+01 -1.95540941862E+01 -1.93313873893E+01
 -1.90951547458E+01 -1.88445824640E+01 -1.85789452125E+01 -1.82976977978E+01
 -1.80005742868E+01 -1.76876735864E+01 -1.73595079840E+01 -1.70169974786E+01
 -1.66614073360E+01 -1.62942436885E+01 -1.59171343649E+01 -1.55317240632E+01
 -1.51396047261E+01 -1.47422886406E+01 -1.43412196519E+01 -1.39378109428E+01
 -1.35334967196E+01 -1.31297882357E+01 -1.27283295975E+01 -1.23309538130E+01
 -1.19397429764E+01 -1.15570076865E+01 -1.11849487107E+01 -1.08257159006E+01
 -1.04814385914E+01 -1.01541955213E+01 -9.84592508912E+00 -9.55814176000E+00
 -9.29184892038E+00 -9.04740198947E+00 -8.82431780223E+00 -8.62107571043E+00
 -8.43494524425E+00 -8.26190130994E+00 -8.09672546479E+00 -7.93344256855E+00
 -7.76630955008E+00 -7.59166363458E+00 -7.41106347491E+00 -7.23242574950E+00
 -7.05809282427E+00 -6.88796131068E+00 -6.72193021421E+00 -6.55990089700E+00
 -6.40177703812E+00 -6.24746459209E+00 -6.09687174606E+00 -5.94990887571E+00
 -5.80648850035E+00 -5.66652523718E+00 -5.52993575513E+00 -5.39663872844E+00
 -5.26655479034E+00 -5.13960648692E+00 -5.01571823171E+00 -4.89481626085E+00
 -4.77682858917E+00 -4.66168496727E+00 -4.54931683953E+00 -4.43965730316E+00
 -4.33264106825E+00 -4.22820441884E+00 -4.12628517488E+00 -4.02682265523E+00
 -3.92975764146E+00 -3.83503234258E+00 -3.74259036067E+00 -3.65237665723E+00
 -3.56433752047E+00 -3.47842053330E+00 -3.39457454211E+00 -3.31274962634E+00
 -3.23289706874E+00 -3.15496932638E+00 -3.07892000232E+00 -3.00470381802E+00
 -2.93227658633E+00 -2.86159518526E+00 -2.79261753221E+00 -2.72530255901E+00
 -2.65961018738E+00 -2.59550130514E+00 -2.53293774289E+00 -2.47188225128E+00
 -2.41229847886E+00 -2.35415095038E+00 -2.29740504575E+00 -2.24202697936E+00
 -2.18798378000E+00 -2.13524327120E+00 -2.08377405211E+00 -2.03354547878E+00
 -1.98452764593E+00 -1.93669136911E+00 -1.89000816738E+00 -1.84445024629E+00
 -1.79999048140E+00 -1.75660240207E+00 -1.71426017573E+00 -1.67293859250E+00
 -1.63261305016E+00 -1.59325953953E+00 -1.55485463017E+00 -1.51737545639E+00
 -1.48079970371E+00 -1.44510559550E+00 -1.41027188007E+00 -1.37627781796E+00
 -1.34310316967E+00 -1.31072818354E+00 -1.27913358401E+00 -1.24830056018E+00
 -1.21821075454E+00 -1.18884625211E+00 -1.16018956974E+00 -1.13222364569E+00
 -1.10493182950E+00 -1.07829787206E+00 -1.05230591594E+00 -1.02694048594E+00
 -1.00218647988E+00 -9.78029159640E-01 -9.54454142324E-01 -9.31447391748E-01
 -9.08995210060E-01 -8.87084229589E-01 -8.65701404888E-01 -8.44834004965E-01
 -8.24469605705E-01 -8.04596082468E-01 -7.85201602877E-01 -7.66274619768E-01
 -7.47803864320E-01 -7.29778339338E-01 -7.12187312714E-01 -6.95020311031E-01
 -6.78267113332E-01 -6.61917745030E-01 -6.45962471972E-01 -6.30391794644E-01
 -6.15196442514E-01 -6.00367368512E-01 -5.85895743644E-01 -5.71772951736E-01
 -5.57990584304E-01 -5.44540435546E-01 -5.31414497459E-01 -5.18604955069E-01