<UPF version="2.0.1">
  <PP_INFO>
    Generated using "atomic" code by A. Dal Corso  v.7.2
    Author: SF
    Generation date: 20Nov2023
    Pseudopotential type: NC
    Element: Cd
    Functional: PBE
    Suggested minimum cutoff for wavefunctions:   0. Ry
    Suggested minimum cutoff for charge density:   0. Ry
    The Pseudo was generated with a Scalar-Relativistic Calculation
    Local Potential by smoothing AE potential with Bessel fncs, cutoff radius:   1.1000
    Pseudopotential contains additional information for GIPAW reconstruction.
    Valence configuration: 
    nl pn  l   occ       Rcut    Rcut US       E pseu
    4S  1  0  2.00      0.900      0.900    -7.785000
    5S  2  0  2.00      0.900      0.900    -0.415938
    4P  2  1  6.00      0.900      0.900    -4.922126
    5P  3  1  0.00      0.900      0.900    -0.086984
    4D  3  2 10.00      0.900      0.900    -0.862176
    Generation configuration:
    4S  1  0  2.00      0.900      0.900    -7.784807
    5S  2  0  2.00      0.900      0.900    -0.415960
    4P  2  1  6.00      0.900      0.900    -4.922000
    5P  3  1  0.00      0.900      0.900    -0.086982
    4D  3  2 10.00      0.900      0.900    -0.862357
    4D  3  2 -1.00      0.900      0.900     0.500000
    Pseudization used: troullier-martins
    <PP_INPUTFILE>
@input
title = 'Cd'
prefix = 'cd'
verbosity = 'high'
zed = 48
config = '[Kr] 5s2 5p0 4d10 5d0'
dft = 'pbe'
rel = 1
iswitch = 3
beta = 0.2
xmin = -8.0, dx = 0.01
nld = 4, rlderiv = 2.3, eminld  = -5.0, emaxld  = 5.0, deld = 0.002
/
@inputp
pseudotype = 2
lloc = -1
rcloc = 1.10
tm = .true.

nlcc = .true.
new_core_ps = .true.
rcore = 0.7
file_core = 'cd.core'

file_pseudopw = 'Cd.pbe-nc-semi-gipaw-sf.UPF'
lgipaw_reconstruction = .true.
author = 'SF'
/
6
4S  1  0  2.0  0.00  0.90  1.10
5S  2  0  2.0  0.00  0.90  1.10
4P  2  1  6.0  0.00  0.90  1.10
5P  3  1  0.0  0.00  0.90  1.10
4D  3  2 10.0  0.00  0.90  1.10
4D  3  2 -1.0  0.50  0.90  1.10
@test
ecutmin = 40
ecutmax = 90
decut   = 10
/
6
4S  1  0  2.0  0.00  0.90  1.10
5S  2  0  2.0  0.00  0.90  1.10
4P  2  1  6.0  0.00  0.90  1.10
5P  3  1  0.0  0.00  0.90  1.10
4D  3  2 10.0  0.00  0.90  1.10
5D  4  2 -1.0  0.50  0.90  1.10
    </PP_INPUTFILE>
  </PP_INFO>
    <!-- END OF HUMAN READABLE SECTION -->
  <PP_HEADER generated="Generated using 'atomic' code by A. Dal Corso  v.7.2" author="SF" date="20Nov2023" comment="" element="Cd" pseudo_type="NC" relativistic="scalar" is_ultrasoft="false" is_paw="false" is_coulomb="false" has_so="false" has_wfc="false" has_gipaw="true" paw_as_gipaw="false" core_correction="true" functional="PBE" z_valence="20.000000000000000" total_psenergy="-371.66449372878583" wfc_cutoff="0.0000000000000000" rho_cutoff="0.0000000000000000" l_max="2" l_max_rho="4" l_local="-1" mesh_size="1649" number_of_wfc="6" number_of_proj="6"/>
  <PP_MESH mesh="1649" dx="1.0000000000000000E-002" xmin="-8.0000000000000000" rmax="100.00000000000000" zmesh="48.000000000000000">
    <PP_R>
   6.988804747968997E-06   7.059043403404711E-06   7.129987969063320E-06
   7.201645539460520E-06   7.274023280413050E-06   7.347128429755328E-06
   7.420968298063209E-06   7.495550269385063E-06   7.570881801980163E-06
   7.646970429064549E-06   7.723823759564337E-06   7.801449478876631E-06
   7.879855349638037E-06   7.959049212500973E-06   8.039038986917722E-06
   8.119832671932391E-06   8.201438346980797E-06   8.283864172698455E-06
   8.367118391736627E-06   8.451209329586601E-06   8.536145395412225E-06
   8.621935082890868E-06   8.708586971062769E-06   8.796109725188965E-06
   8.884512097617788E-06   8.973802928660156E-06   9.063991147473586E-06
   9.155085772955114E-06   9.247095914643208E-06   9.340030773628698E-06
   9.433899643474937E-06   9.528711911147132E-06   9.624477057951068E-06
   9.721204660481217E-06   9.818904391578445E-06   9.917586021297278E-06
   1.001725941788293E-05   1.011793454875811E-05   1.021962148151980E-05
   1.032233038494603E-05   1.042607153001273E-05   1.053085529092084E-05
   1.063669214613379E-05   1.074359267942529E-05   1.085156758093776E-05
   1.096062764825133E-05   1.107078378746360E-05   1.118204701428031E-05
   1.129442845511686E-05   1.140793934821096E-05   1.152259104474653E-05
   1.163839500998877E-05   1.175536282443070E-05   1.187350618495126E-05
   1.199283690598492E-05   1.211336692070324E-05   1.223510828220815E-05
   1.235807316473723E-05   1.248227386488121E-05   1.260772280281361E-05
   1.273443252353276E-05   1.286241569811633E-05   1.299168512498843E-05
   1.312225373119946E-05   1.325413457371886E-05   1.338734084074079E-05
   1.352188585300294E-05   1.365778306511866E-05   1.379504606692242E-05
   1.393368858482880E-05   1.407372448320509E-05   1.421516776575785E-05
   1.435803257693319E-05   1.450233320333130E-05   1.464808407513506E-05
   1.479529976755310E-05   1.494399500227736E-05   1.509418464895522E-05
   1.524588372667652E-05   1.539910740547541E-05   1.555387100784748E-05
   1.571019001028196E-05   1.586808004480932E-05   1.602755690056460E-05
   1.618863652536628E-05   1.635133502731108E-05   1.651566867638477E-05
   1.668165390608920E-05   1.684930731508566E-05   1.701864566885476E-05
   1.718968590137301E-05   1.736244511680618E-05   1.753694059121977E-05
   1.771318977430666E-05   1.789121029113203E-05   1.807101994389589E-05
   1.825263671371337E-05   1.843607876241281E-05   1.862136443435195E-05
   1.880851225825237E-05   1.899754094905242E-05   1.918846940977872E-05
   1.938131673343644E-05   1.957610220491867E-05   1.977284530293485E-05
   1.997156570195875E-05   2.017228327419589E-05   2.037501809157072E-05
   2.057979042773395E-05   2.078662076008983E-05   2.099552977184397E-05
   2.120653835407164E-05   2.141966760780687E-05   2.163493884615267E-05
   2.185237359641228E-05   2.207199360224188E-05   2.229382082582509E-05
   2.251787745006913E-05   2.274418588082314E-05   2.297276874911879E-05
   2.320364891343340E-05   2.343684946197578E-05   2.367239371499512E-05
   2.391030522711305E-05   2.415060778967899E-05   2.439332543314947E-05
   2.463848242949110E-05   2.488610329460782E-05   2.513621279079251E-05
   2.538883592920317E-05   2.564399797236419E-05   2.590172443669253E-05
   2.616204109504936E-05   2.642497397931748E-05   2.669054938300440E-05
   2.695879386387183E-05   2.722973424659141E-05   2.750339762542714E-05
   2.777981136694499E-05   2.805900311274947E-05   2.834100078224779E-05
   2.862583257544191E-05   2.891352697574852E-05   2.920411275284738E-05
   2.949761896555838E-05   2.979407496474738E-05   3.009351039626132E-05
   3.039595520389288E-05   3.070143963237492E-05   3.100999423040478E-05
   3.132164985369942E-05   3.163643766808091E-05   3.195438915259298E-05
   3.227553610264909E-05   3.259991063321181E-05   3.292754518200452E-05
   3.325847251275518E-05   3.359272571847257E-05   3.393033822475585E-05
   3.427134379313698E-05   3.461577652445696E-05   3.496367086227599E-05
   3.531506159631772E-05   3.566998386594839E-05   3.602847316369077E-05
   3.639056533877333E-05   3.675629660071532E-05   3.712570352294774E-05
   3.749882304647065E-05   3.787569248354732E-05   3.825634952143557E-05
   3.864083222615632E-05   3.902917904630049E-05   3.942142881687374E-05
   3.981762076317995E-05   4.021779450474394E-05   4.062199005927334E-05
   4.103024784666044E-05   4.144260869302424E-05   4.185911383479292E-05
   4.227980492282779E-05   4.270472402658827E-05   4.313391363833876E-05
   4.356741667739813E-05   4.400527649443155E-05   4.444753687578559E-05
   4.489424204786698E-05   4.534543668156511E-05   4.580116589671940E-05
   4.626147526663116E-05   4.672641082262090E-05   4.719601905863171E-05
   4.767034693587853E-05   4.814944188754436E-05   4.863335182352360E-05
   4.912212513521319E-05   4.961581070035147E-05   5.011445788790645E-05
   5.061811656301245E-05   5.112683709195660E-05   5.164067034721580E-05
   5.215966771254375E-05   5.268388108810949E-05   5.321336289568747E-05
   5.374816608389958E-05   5.428834413351038E-05   5.483395106277501E-05
   5.538504143284098E-05   5.594167035320459E-05   5.650389348722174E-05
   5.707176705767434E-05   5.764534785239267E-05   5.822469322993424E-05
   5.880986112531951E-05   5.940091005582572E-05   5.999789912683839E-05
   6.060088803776217E-05   6.120993708799064E-05   6.182510718293634E-05
   6.244645984012143E-05   6.307405719532949E-05   6.370796200881890E-05
   6.434823767159942E-05   6.499494821177072E-05   6.564815830092587E-05
   6.630793326061806E-05   6.697433906889312E-05   6.764744236688722E-05
   6.832731046549111E-05   6.901401135208110E-05   6.970761369731823E-05
   7.040818686201491E-05   7.111580090407147E-05   7.183052658548180E-05
   7.255243537940965E-05   7.328159947733601E-05   7.401809179627830E-05
   7.476198598608225E-05   7.551335643678657E-05   7.627227828606267E-05
   7.703882742672775E-05   7.781308051433474E-05   7.859511497483761E-05
   7.938500901233411E-05   8.018284161688623E-05   8.098869257241938E-05
   8.180264246470050E-05   8.262477268939726E-05   8.345516546021709E-05
   8.429390381712914E-05   8.514107163466805E-05   8.599675363032158E-05
   8.686103537300232E-05   8.773400329160490E-05   8.861574468364845E-05
   8.950634772400715E-05   9.040590147372706E-05   9.131449588893284E-05
   9.223222182982315E-05   9.315917106975692E-05   9.409543630443055E-05
   9.504111116114775E-05   9.599629020818234E-05   9.696106896423483E-05
   9.793554390798501E-05   9.891981248773912E-05   9.991397313117544E-05
   1.009181252551868E-04   1.019323692758224E-04   1.029568066183295E-04
   1.039915397272962E-04   1.050366720768954E-04   1.060923081812332E-04
   1.071585536047996E-04   1.082355149730256E-04   1.093232999829455E-04
   1.104220174139667E-04   1.115317771387480E-04   1.126526901341867E-04
   1.137848684925162E-04   1.149284254325162E-04   1.160834753108333E-04
   1.172501336334180E-04   1.184285170670749E-04   1.196187434511292E-04
   1.208209318092113E-04   1.220352023611587E-04   1.232616765350387E-04
   1.245004769792905E-04   1.257517275749910E-04   1.270155534482425E-04
   1.282920809826854E-04   1.295814378321369E-04   1.308837529333566E-04
   1.321991565189398E-04   1.335277801303413E-04   1.348697566310293E-04
   1.362252202197723E-04   1.375943064440586E-04   1.389771522136515E-04
   1.403738958142806E-04   1.417846769214696E-04   1.432096366145052E-04
   1.446489173905441E-04   1.461026631788630E-04   1.475710193552526E-04
   1.490541327565539E-04   1.505521516953430E-04   1.520652259747622E-04
   1.535935069035003E-04   1.551371473109237E-04   1.566963015623596E-04
   1.582711255745327E-04   1.598617768311560E-04   1.614684143986812E-04
   1.630911989422036E-04   1.647302927415300E-04   1.663858597074063E-04
   1.680580653979086E-04   1.697470770349996E-04   1.714530635212506E-04
   1.731761954567316E-04   1.749166451560724E-04   1.766745866656931E-04
   1.784501957812096E-04   1.802436500650132E-04   1.820551288640269E-04
   1.838848133276401E-04   1.857328864258240E-04   1.875995329674283E-04
   1.894849396186630E-04   1.913892949217640E-04   1.933127893138488E-04
   1.952556151459595E-04   1.972179667022984E-04   1.992000402196563E-04
   2.012020339070368E-04   2.032241479654771E-04   2.052665846080679E-04
   2.073295480801756E-04   2.094132446798664E-04   2.115178827785367E-04
   2.136436728417505E-04   2.157908274502853E-04   2.179595613213916E-04
   2.201500913302636E-04   2.223626365317276E-04   2.245974181821478E-04
   2.268546597615510E-04   2.291345869959767E-04   2.314374278800480E-04
   2.337634126997726E-04   2.361127740555706E-04   2.384857468855356E-04
   2.408825684889278E-04   2.433034785499053E-04   2.457487191614911E-04
   2.482185348497843E-04   2.507131725984120E-04   2.532328818732278E-04
   2.557779146472591E-04   2.583485254259041E-04   2.609449712723830E-04
   2.635675118334439E-04   2.662164093653286E-04   2.688919287599973E-04
   2.715943375716195E-04   2.743239060433281E-04   2.770809071342451E-04
   2.798656165467771E-04   2.826783127541861E-04   2.855192770284364E-04
   2.883887934683232E-04   2.912871490278814E-04   2.942146335450826E-04
   2.971715397708178E-04   3.001581633981740E-04   3.031748030920026E-04
   3.062217605187872E-04   3.092993403768090E-04   3.124078504266191E-04
   3.155476015218123E-04   3.187189076401150E-04   3.219220859147816E-04
   3.251574566663090E-04   3.284253434344684E-04   3.317260730106601E-04
   3.350599754705923E-04   3.384273842072890E-04   3.418286359644304E-04
   3.452640708700261E-04   3.487340324704298E-04   3.522388677646933E-04
   3.557789272392665E-04   3.593545649030472E-04   3.629661383227816E-04
   3.666140086588207E-04   3.702985407012387E-04   3.740201029063097E-04
   3.777790674333557E-04   3.815758101819620E-04   3.854107108295676E-04
   3.892841528694329E-04   3.931965236489894E-04   3.971482144085757E-04
   4.011396203205608E-04   4.051711405288625E-04   4.092431781888604E-04
   4.133561405077143E-04   4.175104387850836E-04   4.217064884542579E-04
   4.259447091237013E-04   4.302255246190118E-04   4.345493630253066E-04
   4.389166567300296E-04   4.433278424661911E-04   4.477833613560401E-04
   4.522836589551786E-04   4.568291852971169E-04   4.614203949382776E-04
   4.660577470034500E-04   4.707417052317055E-04   4.754727380227702E-04
   4.802513184838663E-04   4.850779244770210E-04   4.899530386668564E-04
   4.948771485688541E-04   4.998507465981080E-04   5.048743301185651E-04
   5.099484014927639E-04   5.150734681320705E-04   5.202500425474201E-04
   5.254786424005671E-04   5.307597905558545E-04   5.360940151324987E-04
   5.414818495574033E-04   5.469238326184994E-04   5.524205085186288E-04
   5.579724269299620E-04   5.635801430489667E-04   5.692442176519285E-04
   5.749652171510269E-04   5.807437136509794E-04   5.865802850062520E-04
   5.924755148788442E-04   5.984299927966548E-04   6.044443142124386E-04
   6.105190805633489E-04   6.166548993310836E-04   6.228523841026317E-04
   6.291121546316354E-04   6.354348369003643E-04   6.418210631823144E-04
   6.482714721054349E-04   6.547867087159940E-04   6.613674245430821E-04
   6.680142776637663E-04   6.747279327688969E-04   6.815090612295795E-04
   6.883583411643111E-04   6.952764575067937E-04   7.022641020744254E-04
   7.093219736374863E-04   7.164507779890148E-04   7.236512280153865E-04
   7.309240437676050E-04   7.382699525333050E-04   7.456896889094853E-04
   7.531839948759669E-04   7.607536198695920E-04   7.683993208591669E-04
   7.761218624211626E-04   7.839220168161708E-04   7.918005640661320E-04
   7.997582920323349E-04   8.077959964942085E-04   8.159144812288972E-04
   8.241145580916405E-04   8.323970470969566E-04   8.407627765006489E-04
   8.492125828826294E-04   8.577473112305782E-04   8.663678150244413E-04
   8.750749563217823E-04   8.838696058439872E-04   8.927526430633375E-04
   9.017249562909566E-04   9.107874427656446E-04   9.199410087436013E-04
   9.291865695890524E-04   9.385250498657880E-04   9.479573834296160E-04
   9.574845135217543E-04   9.671073928631510E-04   9.768269837497606E-04
   9.866442581487694E-04   9.965601977957993E-04   1.006575794293079E-03
   1.016692049208604E-03   1.026909974176295E-03   1.037230590997166E-03
   1.047654931741497E-03   1.058184038852053E-03   1.068818965248315E-03
   1.079560774431788E-03   1.090410540592341E-03   1.101369348715633E-03
   1.112438294691606E-03   1.123618485424084E-03   1.134911038941455E-03
   1.146317084508485E-03   1.157837762739231E-03   1.169474225711119E-03
   1.181227637080144E-03   1.193099172197236E-03   1.205090018225802E-03
   1.217201374260434E-03   1.229434451446830E-03   1.241790473102903E-03
   1.254270674841116E-03   1.266876304692041E-03   1.279608623229169E-03
   1.292468903694964E-03   1.305458432128191E-03   1.318578507492515E-03
   1.331830441806408E-03   1.345215560274343E-03   1.358735201419324E-03
   1.372390717216729E-03   1.386183473229518E-03   1.400114848744787E-03
   1.414186236911697E-03   1.428399044880790E-03   1.442754693944708E-03
   1.457254619680320E-03   1.471900272092284E-03   1.486693115758043E-03
   1.501634629974294E-03   1.516726308904908E-03   1.531969661730356E-03
   1.547366212798623E-03   1.562917501777645E-03   1.578625083809281E-03
   1.594490529664823E-03   1.610515425902079E-03   1.626701375024024E-03
   1.643049995639061E-03   1.659562922622875E-03   1.676241807281926E-03
   1.693088317518577E-03   1.710104137997892E-03   1.727290970316097E-03
   1.744650533170750E-03   1.762184562532599E-03   1.779894811819192E-03
   1.797783052070219E-03   1.815851072124611E-03   1.834100678799429E-03
   1.852533697070549E-03   1.871151970255159E-03   1.889957360196095E-03
   1.908951747448018E-03   1.928137031465485E-03   1.947515130792885E-03
   1.967087983256298E-03   1.986857546157285E-03   2.006825796468605E-03
   2.026994731031932E-03   2.047366366757531E-03   2.067942740825952E-03
   2.088725910891745E-03   2.109717955289238E-03   2.130920973240363E-03
   2.152337085064588E-03   2.173968432390938E-03   2.195817178372173E-03
   2.217885507901100E-03   2.240175627829062E-03   2.262689767186625E-03
   2.285430177406488E-03   2.308399132548622E-03   2.331598929527686E-03
   2.355031888342706E-03   2.378700352309094E-03   2.402606688292969E-03
   2.426753286947855E-03   2.451142562953734E-03   2.475776955258534E-03
   2.500658927322015E-03   2.525790967362117E-03   2.551175588603790E-03
   2.576815329530309E-03   2.602712754137133E-03   2.628870452188306E-03
   2.655291039475434E-03   2.681977158079255E-03   2.708931476633873E-03
   2.736156690593605E-03   2.763655522502537E-03   2.791430722266770E-03
   2.819485067429431E-03   2.847821363448413E-03   2.876442443976935E-03
   2.905351171146895E-03   2.934550435855104E-03   2.964043158052365E-03
   2.993832287035479E-03   3.023920801742162E-03   3.054311711048962E-03
   3.085008054072134E-03   3.116012900471565E-03   3.147329350757727E-03
   3.178960536601748E-03   3.210909621148571E-03   3.243179799333279E-03
   3.275774298200576E-03   3.308696377227515E-03   3.341949328649432E-03
   3.375536477789182E-03   3.409461183389669E-03   3.443726837949720E-03
   3.478336868063348E-03   3.513294734762406E-03   3.548603933862698E-03
   3.584267996313553E-03   3.620290488550941E-03   3.656675012854101E-03
   3.693425207705789E-03   3.730544748156110E-03   3.768037346190044E-03
   3.805906751098638E-03   3.844156749853945E-03   3.882791167487709E-03
   3.921813867473892E-03   3.961228752115011E-03   4.001039762932379E-03
   4.041250881060250E-03   4.081866127643945E-03   4.122889564241972E-03
   4.164325293232179E-03   4.206177458221989E-03   4.248450244462781E-03
   4.291147879268405E-03   4.334274632437925E-03   4.377834816682601E-03
   4.421832788057148E-03   4.466272946395374E-03   4.511159735750146E-03
   4.556497644837810E-03   4.602291207487047E-03   4.648545003092288E-03
   4.695263657071639E-03   4.742451841329434E-03   4.790114274723415E-03
   4.838255723536643E-03   4.886881001954117E-03   4.935994972544206E-03
   4.985602546744888E-03   5.035708685354926E-03   5.086318399029939E-03
   5.137436748783471E-03   5.189068846493089E-03   5.241219855411594E-03
   5.293894990683339E-03   5.347099519865751E-03   5.400838763456075E-03
   5.455118095423459E-03   5.509942943746332E-03   5.565318790955214E-03
   5.621251174680979E-03   5.677745688208597E-03   5.734807981036507E-03
   5.792443759441543E-03   5.850658787049581E-03   5.909458885411885E-03
   5.968849934587294E-03   6.028837873730220E-03   6.089428701684573E-03
   6.150628477583631E-03   6.212443321455987E-03   6.274879414837542E-03
   6.337943001389671E-03   6.401640387523569E-03   6.465977943030938E-03
   6.530962101720943E-03   6.596599362063612E-03   6.662896287839667E-03
   6.729859508796936E-03   6.797495721313322E-03   6.865811689066442E-03
   6.934814243709993E-03   7.004510285556946E-03   7.074906784269565E-03
   7.146010779556387E-03   7.217829381876199E-03   7.290369773149071E-03
   7.363639207474587E-03   7.437645011857234E-03   7.512394586939135E-03
   7.587895407740071E-03   7.664155024405049E-03   7.741181062959283E-03
   7.818981226070828E-03   7.897563293820811E-03   7.976935124481501E-03
   8.057104655302107E-03   8.138079903302528E-03   8.219868966075025E-03
   8.302480022594046E-03   8.385921334034081E-03   8.470201244595819E-03
   8.555328182340534E-03   8.641310660032946E-03   8.728157275992477E-03
   8.815876714953106E-03   8.904477748931808E-03   8.993969238105828E-03
   9.084360131698657E-03   9.175659468874981E-03   9.267876379644610E-03
   9.361020085775452E-03   9.455099901715747E-03   9.550125235525488E-03
   9.646105589817256E-03   9.743050562706445E-03   9.840969848771140E-03
   9.939873240021548E-03   1.003977062687922E-02   1.014067199916608E-02
   1.024258744710344E-02   1.034552716232103E-02   1.044950143887616E-02
   1.055452067428312E-02   1.066059537055297E-02   1.076773613524373E-02
   1.087595368252117E-02   1.098525883423018E-02   1.109566252097703E-02
   1.120717578322238E-02   1.131980977238542E-02   1.143357575195889E-02
   1.154848509863556E-02   1.166454930344588E-02   1.178177997290702E-02
   1.190018883018365E-02   1.201978771626014E-02   1.214058859112478E-02
   1.226260353496573E-02   1.238584474937905E-02   1.251032455858888E-02
   1.263605541067986E-02   1.276304987884200E-02   1.289132066262794E-02
   1.302088058922294E-02   1.315174261472762E-02   1.328391982545361E-02
   1.341742543923212E-02   1.355227280673577E-02   1.368847541281368E-02
   1.382604687783998E-02   1.396500095907583E-02   1.410535155204510E-02
   1.424711269192408E-02   1.439029855494489E-02   1.453492345981316E-02
   1.468100186913987E-02   1.482854839088770E-02   1.497757777983180E-02
   1.512810493903522E-02   1.528014492133937E-02   1.543371293086913E-02
   1.558882432455344E-02   1.574549461366094E-02   1.590373946535112E-02
   1.606357470424097E-02   1.622501631398760E-02   1.638808043888653E-02
   1.655278338548613E-02   1.671914162421831E-02   1.688717179104557E-02
   1.705689068912462E-02   1.722831529048672E-02   1.740146273773484E-02
   1.757635034575799E-02   1.775299560346274E-02   1.793141617552205E-02
   1.811162990414179E-02   1.829365481084503E-02   1.847750909827411E-02
   1.866321115201102E-02   1.885077954241583E-02   1.904023302648392E-02
   1.923159054972158E-02   1.942487124804060E-02   1.962009444967186E-02
   1.981727967709821E-02   2.001644664900673E-02   2.021761528226058E-02
   2.042080569389074E-02   2.062603820310767E-02   2.083333333333333E-02
   2.104271181425350E-02   2.125419458389073E-02   2.146780279069825E-02
   2.168355779567477E-02   2.190148117450052E-02   2.212159471969500E-02
   2.234392044279618E-02   2.256848057656164E-02   2.279529757719188E-02
   2.302439412657599E-02   2.325579313455980E-02   2.348951774123702E-02
   2.372559131926297E-02   2.396403747619225E-02   2.420488005683924E-02
   2.444814314566272E-02   2.469385106917428E-02   2.494202839837104E-02
   2.519269995119272E-02   2.544589079500352E-02   2.570162624909884E-02
   2.595993188723712E-02   2.622083354019747E-02   2.648435729836260E-02
   2.675052951432795E-02   2.701937680553691E-02   2.729092605694264E-02
   2.756520442369658E-02   2.784223933386403E-02   2.812205849116675E-02
   2.840468987775372E-02   2.869016175699911E-02   2.897850267632876E-02
   2.926974147007487E-02   2.956390726235951E-02   2.986102947000707E-02
   3.016113780548596E-02   3.046426227987970E-02   3.077043320588840E-02
   3.107968120085981E-02   3.139203718985112E-02   3.170753240872153E-02
   3.202619840725585E-02   3.234806705231948E-02   3.267317053104516E-02
   3.300154135405173E-02   3.333321235869503E-02   3.366821671235196E-02
   3.400658791573707E-02   3.434835980625267E-02   3.469356656137262E-02
   3.504224270206012E-02   3.539442309621978E-02   3.575014296218459E-02
   3.610943787223742E-02   3.647234375616879E-02   3.683889690486949E-02
   3.720913397395986E-02   3.758309198745535E-02   3.796080834146892E-02
   3.834232080795075E-02   3.872766753846549E-02   3.911688706800718E-02
   3.951001831885317E-02   3.990710060445618E-02   4.030817363337566E-02
   4.071327751324873E-02   4.112245275480098E-02   4.153574027589753E-02
   4.195318140563498E-02   4.237481788847400E-02   4.280069188841435E-02
   4.323084599321091E-02   4.366532321863261E-02   4.410416701276406E-02
   4.454742126035038E-02   4.499513028718571E-02   4.544733886454583E-02
   4.590409221366539E-02   4.636543601025978E-02   4.683141638909318E-02
   4.730207994859181E-02   4.777747375550381E-02   4.825764534960608E-02
   4.874264274845813E-02   4.923251445220403E-02   4.972730944842248E-02
   5.022707721702524E-02   5.073186773520575E-02   5.124173148243647E-02
   5.175671944551702E-02   5.227688312367287E-02   5.280227453370529E-02
   5.333294621519313E-02   5.386895123574686E-02   5.441034319631500E-02
   5.495717623654488E-02   5.550950504019622E-02   5.606738484060964E-02
   5.663087142623011E-02   5.720002114618575E-02   5.777489091592285E-02
   5.835553822289744E-02   5.894202113232421E-02   5.953439829298262E-02
   6.013272894308250E-02   6.073707291618744E-02   6.134749064719842E-02
   6.196404317839718E-02   6.258679216555067E-02   6.321579988407654E-02
   6.385112923527093E-02   6.449284375259821E-02   6.514100760804495E-02
   6.579568561853685E-02   6.645694325242052E-02   6.712484663601041E-02
   6.779946256020146E-02   6.848085848714826E-02   6.916910255701149E-02
   6.986426359477139E-02   7.056641111711119E-02   7.127561533936823E-02
   7.199194718255576E-02   7.271547828045503E-02   7.344628098677879E-02
   7.418442838240664E-02   7.492999428269331E-02   7.568305324485027E-02
   7.644368057540098E-02   7.721195233771251E-02   7.798794535960132E-02
   7.877173724101627E-02   7.956340636179865E-02   8.036303188952028E-02
   8.117069378740026E-02   8.198647282230161E-02   8.281045057280732E-02
   8.364270943737924E-02   8.448333264259743E-02   8.533240425148285E-02
   8.619000917190400E-02   8.705623316506761E-02   8.793116285409480E-02
   8.881488573268380E-02   8.970749017385854E-02   9.060906543880716E-02
   9.151970168580748E-02   9.243948997924302E-02   9.336852229870968E-02
   9.430689154821358E-02   9.525469156546161E-02   9.621201713124537E-02
   9.717896397891938E-02   9.815562880397384E-02   9.914210927370536E-02
   1.001385040369829E-01   1.011449127341132E-01   1.021614360068046E-01
   1.031881755082315E-01   1.042252339131997E-01   1.052727149284140E-01
   1.063307233028485E-01   1.073993648382226E-01   1.084787463995802E-01
   1.095689759259771E-01   1.106701624412743E-01   1.117824160650411E-01
   1.129058480235667E-01   1.140405706609834E-01   1.151866974505002E-01
   1.163443430057512E-01   1.175136230922567E-01   1.186946546389998E-01
   1.198875557501194E-01   1.210924457167206E-01   1.223094450288041E-01
   1.235386753873155E-01   1.247802597163150E-01   1.260343221752698E-01
   1.273009881714711E-01   1.285803843725740E-01   1.298726387192649E-01
   1.311778804380553E-01   1.324962400542048E-01   1.338278494047735E-01
   1.351728416518066E-01   1.365313512956490E-01   1.379035141883975E-01
   1.392894675474848E-01   1.406893499694018E-01   1.421033014435573E-01
   1.435314633662769E-01   1.449739785549431E-01   1.464309912622771E-01
   1.479026471907633E-01   1.493890935072212E-01   1.508904788575212E-01
   1.524069533814493E-01   1.539386687277219E-01   1.554857780691498E-01
   1.570484361179566E-01   1.586267991412494E-01   1.602210249766459E-01
   1.618312730480579E-01   1.634577043816344E-01   1.651004816218644E-01
   1.667597690478407E-01   1.684357325896887E-01   1.701285398451593E-01
   1.718383600963887E-01   1.735653643268271E-01   1.753097252383362E-01
   1.770716172684610E-01   1.788512166078728E-01   1.806487012179887E-01
   1.824642508487674E-01   1.842980470566850E-01   1.861502732228905E-01
   1.880211145715444E-01   1.899107581883399E-01   1.918193930392137E-01
   1.937472099892414E-01   1.956944018217247E-01   1.976611632574693E-01
   1.996476909742578E-01   2.016541836265174E-01   2.036808418651854E-01
   2.057278683577748E-01   2.077954678086401E-01   2.098838469794498E-01
   2.119932147098612E-01   2.141237819384052E-01   2.162757617235801E-01
   2.184493692651577E-01   2.206448219257036E-01   2.228623392523138E-01
   2.251021429985680E-01   2.273644571467079E-01   2.296495079300334E-01
   2.319575238555272E-01   2.342887357267051E-01   2.366433766666970E-01
   2.390216821415589E-01   2.414238899838209E-01   2.438502404162680E-01
   2.463009760759660E-01   2.487763420385231E-01   2.512765858425983E-01
   2.538019575146557E-01   2.563527095939669E-01   2.589290971578654E-01
   2.615313778472547E-01   2.641598118923726E-01   2.668146621388134E-01
   2.694961940738143E-01   2.722046758528034E-01   2.749403783262158E-01
   2.777035750665786E-01   2.804945423958685E-01   2.833135594131441E-01
   2.861609080224570E-01   2.890368729610399E-01   2.919417418277838E-01
   2.948758051119960E-01   2.978393562224501E-01   3.008326915167267E-01
   3.038561103308497E-01   3.069099150092201E-01   3.099944109348510E-01
   3.131099065599045E-01   3.162567134365397E-01   3.194351462480667E-01
   3.226455228404154E-01   3.258881642539203E-01   3.291633947554249E-01
   3.324715418707088E-01   3.358129364172404E-01   3.391879125372592E-01
   3.425968077311888E-01   3.460399628913897E-01   3.495177223362475E-01
   3.530304338446046E-01   3.565784486905391E-01   3.601621216784923E-01
   3.637818111787496E-01   3.674378791632779E-01   3.711306912419211E-01
   3.748606166989651E-01   3.786280285300639E-01   3.824333034795401E-01
   3.862768220780597E-01   3.901589686806857E-01   3.940801315053131E-01
   3.980407026714931E-01   4.020410782396411E-01   4.060816582506486E-01
   4.101628467658835E-01   4.142850519075985E-01   4.184486858997431E-01
   4.226541651091860E-01   4.269019100873527E-01   4.311923456122810E-01
   4.355259007310995E-01   4.399030088029297E-01   4.443241075422273E-01
   4.487896390625505E-01   4.533000499207725E-01   4.578557911617379E-01