<PP_INFO>
Generated using Fritz-Haber code                                                
Author: unknown    Generation date: as well                                     
Info: automatically converted from FHI format                                   
    1        The Pseudo was generated with a Scalar-Relativistic Calculation
nl pn  l   occ               Rcut            Rcut US             E pseu
3s  0  0  2.00      0.00000000000      0.00000000000      0.00000000000
3p  0  1  6.00      0.00000000000      0.00000000000      0.00000000000
3d  0  2  5.00      0.00000000000      0.00000000000      0.00000000000
</PP_INFO>


<PP_HEADER>
   0                   Version Number
  Co                   Element
   NC                  Norm - Conserving pseudopotential
    F                  Nonlinear Core Correction
SLA  PW   PBE  PBE     PBE  Exchange-Correlation functional
   17.00000000000      Z valence
    0.00000000000      Total energy
  0.0000000  0.0000000 Suggested cutoff for wfc and rho
    1                  Max angular momentum component
  523                  Number of points in mesh
    3    2             Number of Wavefunctions, Number of Projectors
 Wavefunctions         nl  l   occ
                       3s  0  2.00
                       3p  1  6.00
                       3d  2  5.00
</PP_HEADER>


<PP_MESH>
  <PP_R>
  2.31481481481E-04  2.37199074074E-04  2.43057891204E-04  2.49061421116E-04
  2.55213238218E-04  2.61517005202E-04  2.67976475230E-04  2.74595494169E-04
  2.81378002875E-04  2.88328039546E-04  2.95449742122E-04  3.02747350753E-04
  3.10225210316E-04  3.17887773011E-04  3.25739601005E-04  3.33785369149E-04
  3.42029867767E-04  3.50478005501E-04  3.59134812237E-04  3.68005442099E-04
  3.77095176519E-04  3.86409427379E-04  3.95953740236E-04  4.05733797619E-04
  4.15755422421E-04  4.26024581354E-04  4.36547388514E-04  4.47330109010E-04
  4.58379162703E-04  4.69701128021E-04  4.81302745884E-04  4.93190923707E-04
  5.05372739522E-04  5.17855446189E-04  5.30646475710E-04  5.43753443660E-04
  5.57184153718E-04  5.70946602315E-04  5.85048983392E-04  5.99499693282E-04
  6.14307335706E-04  6.29480726898E-04  6.45028900852E-04  6.60961114703E-04
  6.77286854236E-04  6.94015839536E-04  7.11158030773E-04  7.28723634133E-04
  7.46723107896E-04  7.65167168661E-04  7.84066797727E-04  8.03433247630E-04
  8.23278048847E-04  8.43613016653E-04  8.64450258165E-04  8.85802179541E-04
  9.07681493376E-04  9.30101226262E-04  9.53074726551E-04  9.76615672297E-04
  1.00073807940E-03  1.02545630996E-03  1.05078508082E-03  1.07673947232E-03
  1.10333493728E-03  1.13058731023E-03  1.15851281680E-03  1.18712808337E-03
  1.21645014703E-03  1.24649646566E-03  1.27728492836E-03  1.30883386609E-03
  1.34116206259E-03  1.37428876553E-03  1.40823369804E-03  1.44301707038E-03
  1.47865959202E-03  1.51518248394E-03  1.55260749130E-03  1.59095689633E-03
  1.63025353167E-03  1.67052079390E-03  1.71178265751E-03  1.75406368915E-03
  1.79738906228E-03  1.84178457212E-03  1.88727665105E-03  1.93389238433E-03
  1.98165952622E-03  2.03060651652E-03  2.08076249748E-03  2.13215733116E-03
  2.18482161724E-03  2.23878671119E-03  2.29408474296E-03  2.35074863611E-03
  2.40881212742E-03  2.46830978697E-03  2.52927703870E-03  2.59175018156E-03
  2.65576641104E-03  2.72136384140E-03  2.78858152828E-03  2.85745949203E-03
  2.92803874148E-03  3.00036129840E-03  3.07447022247E-03  3.15040963696E-03
  3.22822475499E-03  3.30796190644E-03  3.38966856553E-03  3.47339337910E-03
  3.55918619556E-03  3.64709809459E-03  3.73718141753E-03  3.82948979854E-03
  3.92407819657E-03  4.02100292802E-03  4.12032170034E-03  4.22209364634E-03
  4.32637935941E-03  4.43324092959E-03  4.54274198055E-03  4.65494770747E-03
  4.76992491584E-03  4.88774206126E-03  5.00846929017E-03  5.13217848164E-03
  5.25894329014E-03  5.38883918940E-03  5.52194351738E-03  5.65833552226E-03
  5.79809640966E-03  5.94130939098E-03  6.08805973294E-03  6.23843480834E-03
  6.39252414811E-03  6.55041949457E-03  6.71221485608E-03  6.87800656303E-03
  7.04789332513E-03  7.22197629026E-03  7.40035910463E-03  7.58314797452E-03
  7.77045172949E-03  7.96238188721E-03  8.15905271982E-03  8.36058132200E-03
  8.56708768065E-03  8.77869474637E-03  8.99552850660E-03  9.21771806072E-03
  9.44539569681E-03  9.67869697053E-03  9.91776078570E-03  1.01627294771E-02
  1.04137488952E-02  1.06709684929E-02  1.09345414147E-02  1.12046245876E-02
  1.14813788149E-02  1.17649688717E-02  1.20555636028E-02  1.23533360238E-02
  1.26584634236E-02  1.29711274701E-02  1.32915143186E-02  1.36198147223E-02
  1.39562241460E-02  1.43009428824E-02  1.46541761716E-02  1.50161343230E-02
  1.53870328408E-02  1.57670925519E-02  1.61565397380E-02  1.65556062695E-02
  1.69645297444E-02  1.73835536290E-02  1.78129274037E-02  1.82529067105E-02
  1.87037535063E-02  1.91657362179E-02  1.96391299025E-02  2.01242164111E-02
  2.06212845564E-02  2.11306302850E-02  2.16525568530E-02  2.21873750073E-02
  2.27354031700E-02  2.32969676283E-02  2.38724027287E-02  2.44620510761E-02
  2.50662637377E-02  2.56854004520E-02  2.63198298431E-02  2.69699296403E-02
  2.76360869024E-02  2.83186982489E-02  2.90181700956E-02  2.97349188970E-02
  3.04693713937E-02  3.12219648672E-02  3.19931473994E-02  3.27833781401E-02
  3.35931275802E-02  3.44228778314E-02  3.52731229139E-02  3.61443690498E-02
  3.70371349654E-02  3.79519521990E-02  3.88893654183E-02  3.98499327442E-02
  4.08342260829E-02  4.18428314672E-02  4.28763494044E-02  4.39353952347E-02
  4.50205994970E-02  4.61326083046E-02  4.72720837297E-02  4.84397041978E-02
  4.96361648915E-02  5.08621781644E-02  5.21184739650E-02  5.34058002719E-02
  5.47249235387E-02  5.60766291501E-02  5.74617218901E-02  5.88810264208E-02
  6.03353877734E-02  6.18256718514E-02  6.33527659461E-02  6.49175792649E-02
  6.65210434728E-02  6.81641132466E-02  6.98477668438E-02  7.15730066848E-02
  7.33408599499E-02  7.51523791907E-02  7.70086429567E-02  7.89107564377E-02
  8.08598521217E-02  8.28570904691E-02  8.49036606037E-02  8.70007810206E-02
  8.91497003118E-02  9.13516979096E-02  9.36080848479E-02  9.59202045437E-02
  9.82894335959E-02  1.00717182606E-01  1.03204897016E-01  1.05754057972E-01
  1.08366183204E-01  1.11042827929E-01  1.13785585779E-01  1.16596089748E-01
  1.19476013165E-01  1.22427070690E-01  1.25451019336E-01  1.28549659514E-01
  1.31724836104E-01  1.34978439555E-01  1.38312407012E-01  1.41728723466E-01
  1.45229422935E-01  1.48816589682E-01  1.52492359447E-01  1.56258920725E-01
  1.60118516067E-01  1.64073443414E-01  1.68126057466E-01  1.72278771086E-01
  1.76534056731E-01  1.80894447933E-01  1.85362540797E-01  1.89940995554E-01
  1.94632538145E-01  1.99439961837E-01  2.04366128894E-01  2.09413972278E-01
  2.14586497393E-01  2.19886783879E-01  2.25317987440E-01  2.30883341730E-01
  2.36586160271E-01  2.42429838430E-01  2.48417855439E-01  2.54553776468E-01
  2.60841254747E-01  2.67284033739E-01  2.73885949373E-01  2.80650932322E-01
  2.87583010350E-01  2.94686310706E-01  3.01965062581E-01  3.09423599626E-01
  3.17066362537E-01  3.24897901692E-01  3.32922879864E-01  3.41146074996E-01
  3.49572383049E-01  3.58206820910E-01  3.67054529386E-01  3.76120776262E-01
  3.85410959436E-01  3.94930610134E-01  4.04685396204E-01  4.14681125490E-01
  4.24923749290E-01  4.35419365898E-01  4.46174224235E-01  4.57194727574E-01
  4.68487437345E-01  4.80059077047E-01  4.91916536250E-01  5.04066874696E-01
  5.16517326501E-01  5.29275304465E-01  5.42348404486E-01  5.55744410076E-01
  5.69471297005E-01  5.83537238041E-01  5.97950607821E-01  6.12719987834E-01
  6.27854171534E-01  6.43362169571E-01  6.59253215159E-01  6.75536769573E-01
  6.92222527782E-01  7.09320424218E-01  7.26840638696E-01  7.44793602472E-01
  7.63190004453E-01  7.82040797563E-01  8.01357205263E-01  8.21150728233E-01
  8.41433151220E-01  8.62216550055E-01  8.83513298842E-01  9.05336077323E-01
  9.27697878433E-01  9.50612016030E-01  9.74092132826E-01  9.98152208507E-01
  1.02280656806E+00  1.04806989029E+00  1.07395721658E+00  1.10048395983E+00
  1.12766591364E+00  1.15551926170E+00  1.18406058747E+00  1.21330688398E+00
  1.24327556401E+00  1.27398447044E+00  1.30545188686E+00  1.33769654847E+00
  1.37073765321E+00  1.40459487325E+00  1.43928836662E+00  1.47483878927E+00
  1.51126730737E+00  1.54859560986E+00  1.58684592142E+00  1.62604101568E+00
  1.66620422877E+00  1.70735947322E+00  1.74953125221E+00  1.79274467414E+00
  1.83702546759E+00  1.88239999664E+00  1.92889527656E+00  1.97653898989E+00
  2.02535950294E+00  2.07538588266E+00  2.12664791396E+00  2.17917611744E+00
  2.23300176754E+00  2.28815691120E+00  2.34467438690E+00  2.40258784426E+00
  2.46193176401E+00  2.52274147858E+00  2.58505319311E+00  2.64890400698E+00
  2.71433193595E+00  2.78137593477E+00  2.85007592035E+00  2.92047279559E+00
  2.99260847364E+00  3.06652590294E+00  3.14226909274E+00  3.21988313933E+00
  3.29941425287E+00  3.38090978492E+00  3.46441825660E+00  3.54998938754E+00
  3.63767412541E+00  3.72752467631E+00  3.81959453582E+00  3.91393852085E+00
  4.01061280232E+00  4.10967493853E+00  4.21118390952E+00  4.31520015208E+00
  4.42178559584E+00  4.53100370005E+00  4.64291949145E+00  4.75759960288E+00
  4.87511231308E+00  4.99552758721E+00  5.11891711861E+00  5.24535437144E+00
  5.37491462442E+00  5.50767501564E+00  5.64371458853E+00  5.78311433886E+00
  5.92595726303E+00  6.07232840743E+00  6.22231491909E+00  6.37600609760E+00
  6.53349344821E+00  6.69487073638E+00  6.86023404357E+00  7.02968182444E+00
  7.20331496551E+00  7.38123684515E+00  7.56355339523E+00  7.75037316409E+00
  7.94180738124E+00  8.13797002356E+00  8.33897788314E+00  8.54495063686E+00
  8.75601091759E+00  8.97228438725E+00  9.19389981162E+00  9.42098913696E+00
  9.65368756865E+00  9.89213365159E+00  1.01364693528E+01  1.03868401458E+01
  1.06433950974E+01  1.09062869563E+01  1.11756722441E+01  1.14517113486E+01
  1.17345686189E+01  1.20244124638E+01  1.23214154516E+01  1.26257544133E+01
  1.29376105473E+01  1.32571695278E+01  1.35846216151E+01  1.39201617690E+01
  1.42639897647E+01  1.46163103119E+01  1.49773331766E+01  1.53472733061E+01
  1.57263509567E+01  1.61147918254E+01  1.65128271834E+01  1.69206940149E+01
  1.73386351570E+01  1.77668994454E+01  1.82057418617E+01  1.86554236857E+01
  1.91162126507E+01  1.95883831032E+01  2.00722161659E+01  2.05679999052E+01
  2.10760295028E+01  2.15966074315E+01  2.21300436351E+01  2.26766557129E+01
  2.32367691090E+01  2.38107173060E+01  2.43988420234E+01  2.50014934214E+01
  2.56190303089E+01  2.62518203576E+01  2.69002403204E+01  2.75646762563E+01
  2.82455237598E+01  2.89431881967E+01  2.96580849452E+01  3.03906396433E+01
  3.11412884425E+01  3.19104782670E+01  3.26986670802E+01  3.35063241571E+01
  3.43339303638E+01  3.51819784438E+01  3.60509733113E+01  3.69414323521E+01
  3.78538857312E+01  3.87888767088E+01  3.97469619635E+01  4.07287119240E+01
  4.17347111085E+01  4.27655584729E+01  4.38218677672E+01  4.49042679010E+01
  4.60134033182E+01  4.71499343801E+01  4.83145377593E+01  4.95079068420E+01
  5.07307521410E+01  5.19838017189E+01  5.32678016213E+01  5.45835163214E+01
  5.59317291745E+01  5.73132428851E+01  5.87288799844E+01  6.01794833200E+01
  6.16659165580E+01  6.31890646970E+01  6.47498345950E+01  6.63491555095E+01
  6.79879796506E+01  6.96672827479E+01  7.13880646318E+01  7.31513498282E+01
  7.49581881690E+01  7.68096554168E+01  7.87068539055E+01
  </PP_R>
  <PP_RAB>
  5.64812194989E-06  5.78763056205E-06  5.93058503694E-06  6.07707048735E-06
  6.22717412839E-06  6.38098532936E-06  6.53859566699E-06  6.70009897997E-06
  6.86559142477E-06  7.03517153297E-06  7.20894026983E-06  7.38700109449E-06
  7.56946002153E-06  7.75642568406E-06  7.94800939846E-06  8.14432523060E-06
  8.34549006379E-06  8.55162366837E-06  8.76284877298E-06  8.97929113767E-06
  9.20107962877E-06  9.42834629560E-06  9.66122644910E-06  9.89985874240E-06
  1.01443852533E-05  1.03949515691E-05  1.06517068728E-05  1.09148040326E-05
  1.11843996922E-05  1.14606543646E-05  1.17437325274E-05  1.20338027208E-05
  1.23310376480E-05  1.26356142780E-05  1.29477139506E-05  1.32675224852E-05
  1.35952302906E-05  1.39310324788E-05  1.42751289810E-05  1.46277246668E-05
  1.49890294661E-05  1.53592584939E-05  1.57386321787E-05  1.61273763935E-05
  1.65257225904E-05  1.69339079384E-05  1.73521754645E-05  1.77807741985E-05
  1.82199593212E-05  1.86699923164E-05  1.91311411266E-05  1.96036803124E-05
  2.00878912162E-05  2.05840621292E-05  2.10924884638E-05  2.16134729289E-05
  2.21473257102E-05  2.26943646552E-05  2.32549154622E-05  2.38293118741E-05
  2.44178958774E-05  2.50210179056E-05  2.56390370479E-05  2.62723212630E-05
  2.69212475981E-05  2.75862024138E-05  2.82675816134E-05  2.89657908793E-05
  2.96812459140E-05  3.04143726881E-05  3.11656076935E-05  3.19353982035E-05
  3.27242025391E-05  3.35324903419E-05  3.43607428533E-05  3.52094532018E-05
  3.60791266959E-05  3.69702811252E-05  3.78834470690E-05  3.88191682116E-05
  3.97780016665E-05  4.07605183076E-05  4.17673031098E-05  4.27989554966E-05
  4.38560896974E-05  4.49393351129E-05  4.60493366902E-05  4.71867553065E-05
  4.83522681626E-05  4.95465691862E-05  5.07703694451E-05  5.20243975704E-05
  5.33094001903E-05  5.46261423750E-05  5.59754080917E-05  5.73580006716E-05
  5.87747432882E-05  6.02264794474E-05  6.17140734897E-05  6.32384111049E-05
  6.48003998592E-05  6.64009697357E-05  6.80410736882E-05  6.97216882083E-05
  7.14438139071E-05  7.32084761106E-05  7.50167254705E-05  7.68696385896E-05
  7.87683186628E-05  8.07138961338E-05  8.27075293683E-05  8.47504053437E-05
  8.68437403556E-05  8.89887807424E-05  9.11868036268E-05  9.34391176763E-05
  9.57470638829E-05  9.81120163609E-05  1.00535383165E-04  1.03018607129E-04
  1.05563166725E-04  1.08170576943E-04  1.10842390194E-04  1.13580197232E-04
  1.16385628103E-04  1.19260353117E-04  1.22206083839E-04  1.25224574110E-04
  1.28317621091E-04  1.31487066332E-04  1.34734796870E-04  1.38062746353E-04
  1.41472896188E-04  1.44967276724E-04  1.48547968459E-04  1.52217103280E-04
  1.55976865731E-04  1.59829494314E-04  1.63777282824E-04  1.67822581709E-04
  1.71967799478E-04  1.76215404125E-04  1.80567924607E-04  1.85027952344E-04
  1.89598142767E-04  1.94281216894E-04  1.99079962951E-04  2.03997238036E-04
  2.09035969815E-04  2.14199158270E-04  2.19489877479E-04  2.24911277453E-04
  2.30466586006E-04  2.36159110680E-04  2.41992240714E-04  2.47969449060E-04
  2.54094294451E-04  2.60370423524E-04  2.66801572985E-04  2.73391571838E-04
  2.80144343662E-04  2.87063908951E-04  2.94154387502E-04  3.01420000873E-04
  3.08865074895E-04  3.16494042245E-04  3.24311445088E-04  3.32321937782E-04
  3.40530289645E-04  3.48941387799E-04  3.57560240078E-04  3.66391978008E-04
  3.75441859865E-04  3.84715273803E-04  3.94217741066E-04  4.03954919271E-04
  4.13932605777E-04  4.24156741139E-04  4.34633412645E-04  4.45368857938E-04
  4.56369468729E-04  4.67641794607E-04  4.79192546933E-04  4.91028602843E-04
  5.03157009333E-04  5.15584987463E-04  5.28319936654E-04  5.41369439089E-04
  5.54741264234E-04  5.68443373461E-04  5.82483924786E-04  5.96871277728E-04
  6.11613998288E-04  6.26720864045E-04  6.42200869387E-04  6.58063230861E-04
  6.74317392663E-04  6.90973032262E-04  7.08040066159E-04  7.25528655793E-04
  7.43449213591E-04  7.61812409167E-04  7.80629175673E-04  7.99910716312E-04
  8.19668511005E-04  8.39914323227E-04  8.60660207011E-04  8.81918514124E-04
  9.03701901423E-04  9.26023338388E-04  9.48896114846E-04  9.72333848883E-04
  9.96350494950E-04  1.02096035218E-03  1.04617807287E-03  1.07201867127E-03
  1.09849753245E-03  1.12563042151E-03  1.15343349292E-03  1.18192330019E-03
  1.21111680571E-03  1.24103139081E-03  1.27168486616E-03  1.30309548236E-03
  1.33528194077E-03  1.36826340471E-03  1.40205951080E-03  1.43669038072E-03
  1.47217663312E-03  1.50853939596E-03  1.54580031904E-03  1.58398158692E-03
  1.62310593212E-03  1.66319664864E-03  1.70427760586E-03  1.74637326273E-03
  1.78950868232E-03  1.83370954677E-03  1.87900217258E-03  1.92541352624E-03
  1.97297124034E-03  2.02170362997E-03  2.07163970963E-03  2.12280921046E-03
  2.17524259796E-03  2.22897109013E-03  2.28402667606E-03  2.34044213496E-03
  2.39825105569E-03  2.45748785676E-03  2.51818780683E-03  2.58038704566E-03
  2.64412260568E-03  2.70943243404E-03  2.77635541516E-03  2.84493139392E-03
  2.91520119935E-03  2.98720666897E-03  3.06099067370E-03  3.13659714334E-03
  3.21407109278E-03  3.29345864877E-03  3.37480707739E-03  3.45816481220E-03
  3.54358148307E-03  3.63110794570E-03  3.72079631196E-03  3.81269998086E-03
  3.90687367039E-03  4.00337345005E-03  4.10225677426E-03  4.20358251659E-03
  4.30741100475E-03  4.41380405657E-03  4.52282501676E-03  4.63453879468E-03
  4.74901190290E-03  4.86631249691E-03  4.98651041558E-03  5.10967722284E-03
  5.23588625025E-03  5.36521264063E-03  5.49773339285E-03  5.63352740766E-03
  5.77267553463E-03  5.91526062033E-03  6.06136755765E-03  6.21108333633E-03
  6.36449709474E-03  6.52170017298E-03  6.68278616725E-03  6.84785098558E-03
  7.01699290492E-03  7.19031262967E-03  7.36791335163E-03  7.54990081141E-03
  7.73638336145E-03  7.92747203048E-03  8.12328058964E-03  8.32392562020E-03
  8.52952658302E-03  8.74020588962E-03  8.95608897509E-03  9.17730437278E-03
  9.40398379078E-03  9.63626219042E-03  9.87427786652E-03  1.01181725298E-02
  1.03680913913E-02  1.06241832487E-02  1.08866005749E-02  1.11554996091E-02
  1.14310404495E-02  1.17133871486E-02  1.20027078111E-02  1.22991746941E-02
  1.26029643090E-02  1.29142575274E-02  1.32332396884E-02  1.35601007087E-02
  1.38950351962E-02  1.42382425655E-02  1.45899271569E-02  1.49502983577E-02
  1.53195707271E-02  1.56979641241E-02  1.60857038379E-02  1.64830207227E-02
  1.68901513346E-02  1.73073380725E-02  1.77348293229E-02  1.81728796072E-02
  1.86217497335E-02  1.90817069519E-02  1.95530251136E-02  2.00359848339E-02
  2.05308736593E-02  2.10379862387E-02  2.15576244988E-02  2.20900978239E-02
  2.26357232402E-02  2.31948256042E-02  2.37677377967E-02  2.43548009202E-02
  2.49563645030E-02  2.55727867062E-02  2.62044345378E-02  2.68516840709E-02
  2.75149206675E-02  2.81945392080E-02  2.88909443264E-02  2.96045506512E-02
  3.03357830523E-02  3.10850768937E-02  3.18528782930E-02  3.26396443868E-02
  3.34458436032E-02  3.42719559402E-02  3.51184732519E-02  3.59858995412E-02
  3.68747512599E-02  3.77855576160E-02  3.87188608891E-02  3.96752167531E-02
  4.06551946069E-02  4.16593779137E-02  4.26883645482E-02  4.37427671525E-02
  4.48232135012E-02  4.59303468747E-02  4.70648264425E-02  4.82273276556E-02
  4.94185426487E-02  5.06391806521E-02  5.18899684142E-02  5.31716506340E-02
  5.44849904047E-02  5.58307696677E-02  5.72097896785E-02  5.86228714835E-02
  6.00708564092E-02  6.15546065625E-02  6.30750053446E-02  6.46329579766E-02
  6.62293920386E-02  6.78652580220E-02  6.95415298951E-02  7.12592056835E-02
  7.30193080639E-02  7.48228849731E-02  7.66710102319E-02  7.85647841847E-02
  8.05053343540E-02  8.24938161126E-02  8.45314133705E-02  8.66193392808E-02
  8.87588369610E-02  9.09511802340E-02  9.31976743857E-02  9.54996569431E-02
  9.78584984696E-02  1.00275603382E-01  1.02752410785E-01  1.05290395332E-01
  1.07891068096E-01  1.10555977478E-01  1.13286710122E-01  1.16084891862E-01
  1.18952188691E-01  1.21890307752E-01  1.24900998353E-01  1.27986053013E-01
  1.31147308522E-01  1.34386647042E-01  1.37705997224E-01  1.41107335356E-01
  1.44592686539E-01  1.48164125897E-01  1.51823779806E-01  1.55573827168E-01
  1.59416500699E-01  1.63354088266E-01  1.67388934246E-01  1.71523440922E-01
  1.75760069913E-01  1.80101343639E-01  1.84549846827E-01  1.89108228044E-01
  1.93779201277E-01  1.98565547548E-01  2.03470116573E-01  2.08495828452E-01
  2.13645675415E-01  2.18922723597E-01  2.24330114870E-01  2.29871068708E-01
  2.35548884105E-01  2.41366941542E-01  2.47328704998E-01  2.53437724012E-01
  2.59697635795E-01  2.66112167399E-01  2.72685137934E-01  2.79420460841E-01
  2.86322146223E-01  2.93394303235E-01  3.00641142525E-01  3.08066978745E-01
  3.15676233120E-01  3.23473436078E-01  3.31463229950E-01  3.39650371729E-01
  3.48039735911E-01  3.56636317388E-01  3.65445234428E-01  3.74471731718E-01
  3.83721183491E-01  3.93199096724E-01  4.02911114413E-01  4.12863018939E-01
  4.23060735506E-01  4.33510335673E-01  4.44218040965E-01  4.55190226576E-01
  4.66433425173E-01  4.77954330775E-01  4.89759802745E-01  5.01856869872E-01
  5.14252734558E-01  5.26954777102E-01  5.39970560096E-01  5.53307832931E-01
  5.66974536404E-01  5.80978807453E-01  5.95328983997E-01  6.10033609902E-01
  6.25101440067E-01  6.40541445636E-01  6.56362819344E-01  6.72574980981E-01
  6.89187583012E-01  7.06210516312E-01  7.23653916065E-01  7.41528167792E-01
  7.59843913536E-01  7.78612058200E-01  7.97843776038E-01  8.17550517306E-01
  8.37744015084E-01  8.58436292256E-01  8.79639668675E-01  9.01366768491E-01
  9.23630527673E-01  9.46444201706E-01  9.69821373489E-01  9.93775961414E-01
  1.01832222766E+00  1.04347478668E+00  1.06924861392E+00  1.09565905468E+00
  1.12272183333E+00  1.15045306261E+00  1.17886925326E+00  1.20798732381E+00
  1.23782461071E+00  1.26839887860E+00  1.29972833090E+00  1.33183162067E+00
  1.36472786170E+00  1.39843663989E+00  1.43297802489E+00  1.46837258211E+00
  1.50464138488E+00  1.54180602709E+00  1.57988863596E+00  1.61891188527E+00
  1.65889900883E+00  1.69987381435E+00  1.74186069757E+00  1.78488465680E+00
  1.82897130782E+00  1.87414689912E+00  1.92043832753E+00
  </PP_RAB>
</PP_MESH>


<PP_LOCAL>
 -8.84661290883E+01 -8.84662650163E+01 -8.84664076582E+01 -8.84665573514E+01
 -8.84667144498E+01 -8.84668793250E+01 -8.84670523671E+01 -8.84672339856E+01
 -8.84674246103E+01 -8.84676246924E+01 -8.84678347056E+01 -8.84680551472E+01
 -8.84682865392E+01 -8.84685294293E+01 -8.84687843927E+01 -8.84690520333E+01
 -8.84693329847E+01 -8.84696279122E+01 -8.84699375141E+01 -8.84702625233E+01
 -8.84706037092E+01 -8.84709618794E+01 -8.84713378816E+01 -8.84717326055E+01
 -8.84721469849E+01 -8.84725820000E+01 -8.84730386797E+01 -8.84735181036E+01
 -8.84740214050E+01 -8.84745497732E+01 -8.84751044564E+01 -8.84756867646E+01
 -8.84762980725E+01 -8.84769398228E+01 -8.84776135293E+01 -8.84783207808E+01
 -8.84790632441E+01 -8.84798426686E+01 -8.84806608895E+01 -8.84815198326E+01
 -8.84824215182E+01 -8.84833680662E+01 -8.84843617002E+01 -8.84854047532E+01
 -8.84864996726E+01 -8.84876490253E+01 -8.84888555041E+01 -8.84901219331E+01
 -8.84914512744E+01 -8.84928466345E+01 -8.84943112710E+01 -8.84958486000E+01
 -8.84974622031E+01 -8.84991558360E+01 -8.85009334356E+01 -8.85027991296E+01
 -8.85047572441E+01 -8.85068123141E+01 -8.85089690918E+01 -8.85112325578E+01
 -8.85136079306E+01 -8.85161006779E+01 -8.85187165277E+01 -8.85214614801E+01
 -8.85243418192E+01 -8.85273641262E+01 -8.85305352917E+01 -8.85338625303E+01
 -8.85373533937E+01 -8.85410157859E+01 -8.85448579778E+01 -8.85488886231E+01
 -8.85531167741E+01 -8.85575518984E+01 -8.85622038958E+01 -8.85670831161E+01
 -8.85722003766E+01 -8.85775669812E+01 -8.85831947386E+01 -8.85890959825E+01
 -8.85952835904E+01 -8.86017710046E+01 -8.86085722517E+01 -8.86157019642E+01
 -8.86231754006E+01 -8.86310084671E+01 -8.86392177385E+01 -8.86478204790E+01
 -8.86568346641E+01 -8.86662790008E+01 -8.86761729482E+01 -8.86865367380E+01
 -8.86973913937E+01 -8.87087587493E+01 -8.87206614676E+01 -8.87331230560E+01
 -8.87461678827E+01 -8.87598211895E+01 -8.87741091044E+01 -8.87890586506E+01
 -8.88046977534E+01 -8.88210552453E+01 -8.88381608659E+01 -8.88560452598E+01
 -8.88747399699E+01 -8.88942774255E+01 -8.89146909264E+01 -8.89360146205E+01
 -8.89582834757E+01 -8.89815332445E+01 -8.90058004218E+01 -8.90311221940E+01
 -8.90575363794E+01 -8.90850813588E+01 -8.91137959966E+01 -8.91437195493E+01
 -8.91748915633E+01 -8.92073517591E+01 -8.92411399027E+01 -8.92762956615E+01
 -8.93128584461E+01 -8.93508672352E+01 -8.93903603844E+01 -8.94313754170E+01
 -8.94739487977E+01 -8.95181156866E+01 -8.95639096752E+01 -8.96113625025E+01
 -8.96605037525E+01 -8.97113605316E+01 -8.97639571278E+01 -8.98183146508E+01
 -8.98744506543E+01 -8.99323787425E+01 -8.99921081603E+01 -9.00536433707E+01
 -9.01169836199E+01 -9.01821224942E+01 -9.02490474705E+01 -9.03177394640E+01
 -9.03881723766E+01 -9.04603126508E+01 -9.05341188333E+01 -9.06095411530E+01
 -9.06865211192E+01 -9.07649911458E+01 -9.08448742073E+01 -9.09260835318E+01
 -9.10085223402E+01 -9.10920836343E+01 -9.11766500434E+01 -9.12620937335E+01
 -9.13482763865E+01 -9.14350492535E+01 -9.15222532891E+01 -9.16097193694E+01
 -9.16972685982E+01 -9.17847127034E+01 -9.18718545272E+01 -9.19584886072E+01
 -9.20444018516E+01 -9.21293743041E+01 -9.22131799958E+01 -9.22955878807E+01
 -9.23763628485E+01 -9.24552668071E+01 -9.25320598288E+01 -9.26065013495E+01
 -9.26783514127E+01 -9.27473719479E+01 -9.28133280717E+01 -9.28759894026E+01
 -9.29351313782E+01 -9.29905365632E+01 -9.30419959409E+01 -9.30893101758E+01
 -9.31322908415E+01 -9.31707616042E+01 -9.32045593564E+01 -9.32335352951E+01
 -9.32575559383E+01 -9.32765040781E+01 -9.32902796651E+01 -9.32988006227E+01
 -9.33020035884E+01 -9.32998445801E+01 -9.32922995838E+01 -9.32793650604E+01
 -9.32610583683E+01 -9.32374180950E+01 -9.32085042933E+01 -9.31743986137E+01
 -9.31352043253E+01 -9.30910462140E+01 -9.30420703486E+01 -9.29884437017E+01
 -9.29303536150E+01 -9.28680070962E+01 -9.28016299389E+01 -9.27314656539E+01
 -9.26577742091E+01 -9.25808305721E+01 -9.25009230586E+01 -9.24183514923E+01
 -9.23334251857E+01 -9.22464607610E+01 -9.21577798315E+01 -9.20677065722E+01
 -9.19765652114E+01 -9.18846774816E+01 -9.17923600691E+01 -9.16999221044E+01
 -9.16076627377E+01 -9.15158688412E+01 -9.14248128777E+01 -9.13347509744E+01
 -9.12459212306E+01 -9.11585422885E+01 -9.10728121823E+01 -9.09889074815E+01
 -9.09069827285E+01 -9.08271701702E+01 -9.07495797720E+01 -9.06742994965E+01
 -9.06013958262E+01 -9.05309145022E+01 -9.04628814477E+01 -9.03973038447E+01
 -9.03341713290E+01 -9.02734572687E+01 -9.02151200944E+01 -9.01591046471E+01
 -9.01053435162E+01 -9.00537583399E+01 -9.00042610459E+01 -8.99567550114E+01
 -8.99111361283E+01 -8.98672937596E+01 -8.98251115801E+01 -8.97844682944E+01
 -8.97452382326E+01 -8.97072918221E+01 -8.96704959409E+01 -8.96347141574E+01
 -8.95998068655E+01 -8.95656313232E+01 -8.95320416074E+01 -8.94988884966E+01
 -8.94660192942E+01 -8.94332776083E+01 -8.94005031010E+01 -8.93675312235E+01
 -8.93341929518E+01 -8.93003145382E+01 -8.92657172944E+01 -8.92302174186E+01
 -8.91936258822E+01 -8.91557483859E+01 -8.91163853954E+01 -8.90753322651E+01
 -8.90323794517E+01 -8.89873128199E+01 -8.89399140338E+01 -8.88899610259E+01
 -8.88372285267E+01 -8.87814886331E+01 -8.87225113861E+01 -8.86600653231E+01
 -8.85939179588E+01 -8.85238361497E+01 -8.84495862841E+01 -8.83709342428E+01
 -8.82876450698E+01 -8.81994822957E+01 -8.81062068604E+01 -8.80075755895E+01
 -8.79033391878E+01 -8.77932397326E+01 -8.76770076586E+01 -8.75543582540E+01
 -8.74249876985E+01 -8.72885687006E+01 -8.71447458032E+01 -8.69931304461E+01
 -8.68332958814E+01 -8.66647720459E+01 -8.64870404964E+01 -8.62995295107E+01
 -8.61016094515E+01 -8.58925884821E+01 -8.56717087124E+01 -8.54381428412E+01
 -8.51909913492E+01 -8.49292802780E+01 -8.46519596091E+01 -8.43579022205E+01
 -8.40459033431E+01 -8.37146803578E+01 -8.33628726457E+01 -8.29890410296E+01
 -8.25916661037E+01 -8.21691444531E+01 -8.17197814340E+01 -8.12417789026E+01
 -8.07332161870E+01 -8.01920229548E+01 -7.96159438190E+01 -7.90024970054E+01
 -7.83489335328E+01 -7.76522090402E+01 -7.69089865073E+01 -7.61156920377E+01
 -7.52686435780E+01 -7.43642600698E+01 -7.33993354864E+01 -7.23713345117E+01
 -7.12786470390E+01 -7.01207408272E+01 -6.88981801730E+01 -6.76125226822E+01
 -6.62661449649E+01 -6.48620632060E+01 -6.34038024058E+01 -6.18953395246E+01
 -6.03411166804E+01 -5.87461018653E+01 -5.71158688347E+01 -5.54566712902E+01
 -5.37754939935E+01 -5.20800710098E+01 -5.03788669913E+01 -4.86810209506E+01
 -4.69962538706E+01 -4.53347424550E+01 -4.37069619768E+01 -4.21235018842E+01
 -4.05948586106E+01 -3.91312104815E+01 -3.77421787736E+01 -3.64365066707E+01
 -3.52214854649E+01 -3.41027453107E+01 -3.30839693043E+01 -3.21665511710E+01
 -3.13492289786E+01 -3.06276986017E+01 -2.99942218096E+01 -2.94372706194E+01
 -2.89412937202E+01 -2.84867559396E+01 -2.80506895390E+01 -2.76081053887E+01
 -2.71347389988E+01 -2.66117470816E+01 -2.60331271481E+01 -2.54168255808E+01
 -2.48041632568E+01 -2.42062686362E+01 -2.36227858677E+01 -2.30533676390E+01
 -2.24976749804E+01 -2.19553770719E+01 -2.14261510541E+01 -2.09096818407E+01
 -2.04056619353E+01 -1.99137912506E+01 -1.94337769319E+01 -1.89653331831E+01
 -1.85081810976E+01 -1.80620484921E+01 -1.76266697447E+01 -1.72017856367E+01
 -1.67871431982E+01 -1.63824955571E+01 -1.59876017924E+01 -1.56022267904E+01
 -1.52261411050E+01 -1.48591208207E+01 -1.45009474194E+01 -1.41514076504E+01
 -1.38102934033E+01 -1.34774015842E+01 -1.31525339945E+01 -1.28354972134E+01
 -1.25261024821E+01 -1.22241655919E+01 -1.19295067746E+01 -1.16419505949E+01
 -1.13613258465E+01 -1.10874654499E+01 -1.08202063530E+01 -1.05593894340E+01
 -1.03048594066E+01 -1.00564647278E+01 -9.81405750740E+00 -9.57749341993E+00
 -9.34663161894E+00 -9.12133465301E+00 -8.90146838393E+00 -8.68690190683E+00
 -8.47750747226E+00 -8.27316041013E+00 -8.07373905546E+00 -7.87912467597E+00
 -7.68920140135E+00 -7.50385615434E+00 -7.32297858333E+00 -7.14646099671E+00
 -6.97419829874E+00 -6.80608792694E+00 -6.64202979110E+00 -6.48192621362E+00
 -6.32568187140E+00 -6.17320373905E+00 -6.02440103352E+00 -5.87918516006E+00
 -5.73746965947E+00 -5.59917015661E+00 -5.46420431015E+00 -5.33249176359E+00
 -5.20395409738E+00 -5.07851478226E+00 -4.95609913366E+00 -4.83663426726E+00
 -4.72004905558E+00 -4.60627408567E+00 -4.49524161771E+00 -4.38688554475E+00
 -4.28114135333E+00 -4.17794608503E+00 -4.07723829904E+00 -3.97895803556E+00
 -3.88304678009E+00 -3.78944742861E+00 -3.69810425354E+00 -3.60896287064E+00