<PP_INFO>
Generated using "atomic" code by A. Dal Corso  (espresso distribution)     
Author: anonymous   Generation date:  3Sep2008                             
F                                                                          
    1        The Pseudo was generated with a Scalar-Relativistic Calculation
    1 1.1000000E+00    L component and cutoff radius for Local Potential
nl pn  l   occ               Rcut            Rcut US             E pseu
2S  1  0  2.00      1.10000000000      1.10000000000     -2.19757920902
2P  2  1  5.00      1.10000000000      1.10000000000     -0.81669473900
                       3S  0  0.00
                       3P  1  0.00
</PP_INFO>


<PP_HEADER>
   0                   Version Number
   F                   Element
   NC                  Norm - Conserving pseudopotential
    F                  Nonlinear Core Correction
 SLA  PW   PBX  PBC    PBE  Exchange-Correlation functional
    7.00000000000      Z valence
  -48.05581754688      Total energy
    103.404    413.617 Suggested cutoff for wfc and rho
    1                  Max angular momentum component
 1105                  Number of points in mesh
    2    1             Number of Wavefunctions, Number of Projectors
 Wavefunctions         nl  l   occ
                       2S  0  2.00
                       2P  1  5.00
</PP_HEADER>


<PP_MESH>
  <PP_R>
  1.01320218395E-04  1.02594669852E-04  1.03885151935E-04  1.05191866285E-04
  1.06515017077E-04  1.07854811058E-04  1.09211457572E-04  1.10585168599E-04
  1.11976158783E-04  1.13384645470E-04  1.14810848739E-04  1.16254991436E-04
  1.17717299212E-04  1.19198000556E-04  1.20697326829E-04  1.22215512306E-04
  1.23752794205E-04  1.25309412730E-04  1.26885611106E-04  1.28481635616E-04
  1.30097735643E-04  1.31734163707E-04  1.33391175501E-04  1.35069029938E-04
  1.36767989186E-04  1.38488318710E-04  1.40230287316E-04  1.41994167190E-04
  1.43780233941E-04  1.45588766646E-04  1.47420047892E-04  1.49274363820E-04
  1.51152004172E-04  1.53053262332E-04  1.54978435375E-04  1.56927824114E-04
  1.58901733145E-04  1.60900470895E-04  1.62924349671E-04  1.64973685709E-04
  1.67048799220E-04  1.69150014446E-04  1.71277659705E-04  1.73432067448E-04
  1.75613574304E-04  1.77822521138E-04  1.80059253103E-04  1.82324119693E-04
  1.84617474797E-04  1.86939676757E-04  1.89291088423E-04  1.91672077205E-04
  1.94083015140E-04  1.96524278941E-04  1.98996250060E-04  2.01499314748E-04
  2.04033864114E-04  2.06600294187E-04  2.09199005975E-04  2.11830405534E-04
  2.14494904025E-04  2.17192917781E-04  2.19924868373E-04  2.22691182672E-04
  2.25492292922E-04  2.28328636801E-04  2.31200657494E-04  2.34108803761E-04
  2.37053530004E-04  2.40035296344E-04  2.43054568687E-04  2.46111818801E-04
  2.49207524387E-04  2.52342169156E-04  2.55516242903E-04  2.58730241582E-04
  2.61984667388E-04  2.65280028831E-04  2.68616840818E-04  2.71995624734E-04
  2.75416908518E-04  2.78881226756E-04  2.82389120752E-04  2.85941138623E-04
  2.89537835379E-04  2.93179773010E-04  2.96867520578E-04  3.00601654299E-04
  3.04382757641E-04  3.08211421408E-04  3.12088243836E-04  3.16013830688E-04
  3.19988795343E-04  3.24013758899E-04  3.28089350264E-04  3.32216206257E-04
  3.36394971708E-04  3.40626299559E-04  3.44910850961E-04  3.49249295386E-04
  3.53642310723E-04  3.58090583391E-04  3.62594808442E-04  3.67155689669E-04
  3.71773939719E-04  3.76450280204E-04  3.81185441811E-04  3.85980164419E-04
  3.90835197212E-04  3.95751298801E-04  4.00729237335E-04  4.05769790628E-04
  4.10873746276E-04  4.16041901783E-04  4.21275064683E-04  4.26574052670E-04
  4.31939693720E-04  4.37372826225E-04  4.42874299125E-04  4.48444972036E-04
  4.54085715385E-04  4.59797410551E-04  4.65580949998E-04  4.71437237416E-04
  4.77367187861E-04  4.83371727901E-04  4.89451795756E-04  4.95608341451E-04
  5.01842326957E-04  5.08154726348E-04  5.14546525948E-04  5.21018724490E-04
  5.27572333268E-04  5.34208376296E-04  5.40927890470E-04  5.47731925727E-04
  5.54621545212E-04  5.61597825442E-04  5.68661856475E-04  5.75814742079E-04
  5.83057599909E-04  5.90391561675E-04  5.97817773323E-04  6.05337395215E-04
  6.12951602307E-04  6.20661584333E-04  6.28468545995E-04  6.36373707145E-04
  6.44378302982E-04  6.52483584240E-04  6.60690817386E-04  6.69001284816E-04
  6.77416285057E-04  6.85937132972E-04  6.94565159959E-04  7.03301714165E-04
  7.12148160695E-04  7.21105881824E-04  7.30176277214E-04  7.39360764133E-04
  7.48660777676E-04  7.58077770989E-04  7.67613215495E-04  7.77268601128E-04
  7.87045436561E-04  7.96945249445E-04  8.06969586646E-04  8.17120014486E-04
  8.27398118992E-04  8.37805506136E-04  8.48343802096E-04  8.59014653500E-04
  8.69819727692E-04  8.80760712986E-04  8.91839318933E-04  9.03057276588E-04
  9.14416338780E-04  9.25918280385E-04  9.37564898606E-04  9.49358013249E-04
  9.61299467013E-04  9.73391125775E-04  9.85634878881E-04  9.98032639442E-04
  1.01058634463E-03  1.02329795600E-03  1.03616945975E-03  1.04920286708E-03
  1.06240021450E-03  1.07576356412E-03  1.08929500398E-03  1.10299664840E-03
  1.11687063829E-03  1.13091914149E-03  1.14514435311E-03  1.15954849586E-03
  1.17413382043E-03  1.18890260579E-03  1.20385715960E-03  1.21899981855E-03
  1.23433294869E-03  1.24985894587E-03  1.26558023606E-03  1.28149927573E-03
  1.29761855227E-03  1.31394058434E-03  1.33046792231E-03  1.34720314860E-03
  1.36414887812E-03  1.38130775868E-03  1.39868247138E-03  1.41627573107E-03
  1.43409028672E-03  1.45212892190E-03  1.47039445517E-03  1.48888974057E-03
  1.50761766802E-03  1.52658116380E-03  1.54578319099E-03  1.56522674995E-03
  1.58491487878E-03  1.60485065378E-03  1.62503718995E-03  1.64547764150E-03
  1.66617520228E-03  1.68713310632E-03  1.70835462834E-03  1.72984308424E-03
  1.75160183165E-03  1.77363427041E-03  1.79594384313E-03  1.81853403573E-03
  1.84140837797E-03  1.86457044402E-03  1.88802385300E-03  1.91177226954E-03
  1.93581940439E-03  1.96016901496E-03  1.98482490592E-03  2.00979092982E-03
  2.03507098764E-03  2.06066902944E-03  2.08658905496E-03  2.11283511428E-03
  2.13941130838E-03  2.16632178984E-03  2.19357076350E-03  2.22116248705E-03
  2.24910127176E-03  2.27739148311E-03  2.30603754152E-03  2.33504392299E-03
  2.36441515982E-03  2.39415584133E-03  2.42427061456E-03  2.45476418501E-03
  2.48564131735E-03  2.51690683621E-03  2.54856562688E-03  2.58062263612E-03
  2.61308287289E-03  2.64595140918E-03  2.67923338076E-03  2.71293398800E-03
  2.74705849670E-03  2.78161223888E-03  2.81660061364E-03  2.85202908796E-03
  2.88790319764E-03  2.92422854807E-03  2.96101081515E-03  2.99825574620E-03
  3.03596916081E-03  3.07415695178E-03  3.11282508602E-03  3.15197960552E-03
  3.19162662825E-03  3.23177234913E-03  3.27242304101E-03  3.31358505565E-03
  3.35526482470E-03  3.39746886071E-03  3.44020375813E-03  3.48347619439E-03
  3.52729293090E-03  3.57166081410E-03  3.61658677657E-03  3.66207783808E-03
  3.70814110670E-03  3.75478377992E-03  3.80201314574E-03  3.84983658385E-03
  3.89826156676E-03  3.94729566097E-03  3.99694652816E-03  4.04722192637E-03
  4.09812971125E-03  4.14967783723E-03  4.20187435881E-03  4.25472743182E-03
  4.30824531464E-03  4.36243636955E-03  4.41730906402E-03  4.47287197203E-03
  4.52913377537E-03  4.58610326509E-03  4.64378934277E-03  4.70220102198E-03
  4.76134742967E-03  4.82123780758E-03  4.88188151371E-03  4.94328802376E-03
  5.00546693262E-03  5.06842795587E-03  5.13218093130E-03  5.19673582044E-03
  5.26210271013E-03  5.32829181407E-03  5.39531347445E-03  5.46317816353E-03
  5.53189648532E-03  5.60147917719E-03  5.67193711157E-03  5.74328129767E-03
  5.81552288316E-03  5.88867315593E-03  5.96274354586E-03  6.03774562660E-03
  6.11369111738E-03  6.19059188483E-03  6.26845994486E-03  6.34730746452E-03
  6.42714676387E-03  6.50799031798E-03  6.58985075883E-03  6.67274087726E-03
  6.75667362502E-03  6.84166211679E-03  6.92771963219E-03  7.01485961787E-03
  7.10309568963E-03  7.19244163455E-03  7.28291141311E-03  7.37451916140E-03
  7.46727919331E-03  7.56120600278E-03  7.65631426607E-03  7.75261884405E-03
  7.85013478449E-03  7.94887732447E-03  8.04886189269E-03  8.15010411197E-03
  8.25261980159E-03  8.35642497985E-03  8.46153586651E-03  8.56796888537E-03
  8.67574066679E-03  8.78486805035E-03  8.89536808741E-03  9.00725804384E-03
  9.12055540266E-03  9.23527786681E-03  9.35144336192E-03  9.46907003909E-03
  9.58817627771E-03  9.70878068838E-03  9.83090211579E-03  9.95455964165E-03
  1.00797725877E-02  1.02065605187E-02  1.03349432456E-02  1.04649408284E-02
  1.05965735795E-02  1.07298620668E-02  1.08648271168E-02  1.10014898182E-02
  1.11398715248E-02  1.12799938589E-02  1.14218787150E-02  1.15655482630E-02
  1.17110249513E-02  1.18583315112E-02  1.20074909594E-02  1.21585266026E-02
  1.23114620403E-02  1.24663211689E-02  1.26231281856E-02  1.27819075918E-02
  1.29426841971E-02  1.31054831230E-02  1.32703298074E-02  1.34372500078E-02
  1.36062698059E-02  1.37774156113E-02  1.39507141659E-02  1.41261925480E-02
  1.43038781764E-02  1.44837988149E-02  1.46659825764E-02  1.48504579276E-02
  1.50372536930E-02  1.52263990598E-02  1.54179235826E-02  1.56118571872E-02
  1.58082301763E-02  1.60070732335E-02  1.62084174285E-02  1.64122942216E-02
  1.66187354692E-02  1.68277734279E-02  1.70394407605E-02  1.72537705404E-02
  1.74707962571E-02  1.76905518212E-02  1.79130715700E-02  1.81383902727E-02
  1.83665431357E-02  1.85975658085E-02  1.88314943888E-02  1.90683654284E-02
  1.93082159389E-02  1.95510833975E-02  1.97970057525E-02  2.00460214301E-02
  2.02981693392E-02  2.05534888786E-02  2.08120199424E-02  2.10738029267E-02
  2.13388787356E-02  2.16072887877E-02  2.18790750227E-02  2.21542799076E-02
  2.24329464439E-02  2.27151181736E-02  2.30008391868E-02  2.32901541279E-02
  2.35831082030E-02  2.38797471867E-02  2.41801174295E-02  2.44842658648E-02
  2.47922400165E-02  2.51040880061E-02  2.54198585606E-02  2.57396010197E-02
  2.60633653438E-02  2.63912021217E-02  2.67231625787E-02  2.70592985842E-02
  2.73996626602E-02  2.77443079892E-02  2.80932884227E-02  2.84466584898E-02
  2.88044734051E-02  2.91667890780E-02  2.95336621210E-02  2.99051498588E-02
  3.02813103371E-02  3.06622023318E-02  3.10478853579E-02  3.14384196793E-02
  3.18338663178E-02  3.22342870626E-02  3.26397444804E-02  3.30503019246E-02
  3.34660235458E-02  3.38869743012E-02  3.43132199653E-02  3.47448271399E-02
  3.51818632643E-02  3.56243966265E-02  3.60724963731E-02  3.65262325207E-02
  3.69856759665E-02  3.74508984993E-02  3.79219728112E-02  3.83989725086E-02
  3.88819721235E-02  3.93710471256E-02  3.98662739340E-02  4.03677299288E-02
  4.08754934635E-02  4.13896438772E-02  4.19102615070E-02  4.24374277004E-02
  4.29712248283E-02  4.35117362974E-02  4.40590465639E-02  4.46132411460E-02
  4.51744066378E-02  4.57426307226E-02  4.63180021865E-02  4.69006109325E-02
  4.74905479943E-02  4.80879055509E-02  4.86927769405E-02  4.93052566757E-02
  4.99254404575E-02  5.05534251909E-02  5.11893089999E-02  5.18331912425E-02
  5.24851725268E-02  5.31453547260E-02  5.38138409950E-02  5.44907357862E-02
  5.51761448657E-02  5.58701753301E-02  5.65729356231E-02  5.72845355523E-02
  5.80050863068E-02  5.87347004740E-02  5.94734920577E-02  6.02215764955E-02
  6.09790706771E-02  6.17460929626E-02  6.25227632008E-02  6.33092027479E-02
  6.41055344867E-02  6.49118828457E-02  6.57283738185E-02  6.65551349835E-02
  6.73922955236E-02  6.82399862471E-02  6.90983396072E-02  6.99674897235E-02
  7.08475724024E-02  7.17387251587E-02  7.26410872366E-02  7.35547996323E-02
  7.44800051151E-02  7.54168482502E-02  7.63654754212E-02  7.73260348532E-02
  7.82986766354E-02  7.92835527452E-02  8.02808170713E-02  8.12906254385E-02
  8.23131356313E-02  8.33485074190E-02  8.43969025806E-02  8.54584849298E-02
  8.65334203413E-02  8.76218767757E-02  8.87240243066E-02  8.98400351468E-02
  9.09700836753E-02  9.21143464645E-02  9.32730023077E-02  9.44462322473E-02
  9.56342196028E-02  9.68371499997E-02  9.80552113983E-02  9.92885941232E-02
  1.00537490893E-01  1.01802096850E-01  1.03082609592E-01  1.04379229201E-01
  1.05692158278E-01  1.07021601969E-01  1.08367768003E-01  1.09730866722E-01
  1.11111111111E-01  1.12508716838E-01  1.13923902280E-01  1.15356888565E-01
  1.16807899597E-01  1.18277162102E-01  1.19764905654E-01  1.21271362716E-01
  1.22796768675E-01  1.24341361879E-01  1.25905383674E-01  1.27489078441E-01
  1.29092693636E-01  1.30716479828E-01  1.32360690735E-01  1.34025583269E-01
  1.35711417573E-01  1.37418457063E-01  1.39146968466E-01  1.40897221866E-01
  1.42669490743E-01  1.44464052019E-01  1.46281186096E-01  1.48121176907E-01
  1.49984311953E-01  1.51870882353E-01  1.53781182887E-01  1.55715512044E-01
  1.57674172066E-01  1.59657468998E-01  1.61665712735E-01  1.63699217069E-01
  1.65758299738E-01  1.67843282479E-01  1.69954491074E-01  1.72092255404E-01
  1.74256909499E-01  1.76448791591E-01  1.78668244165E-01  1.80915614016E-01
  1.83191252300E-01  1.85495514590E-01  1.87828760931E-01  1.90191355898E-01
  1.92583668652E-01  1.95006072996E-01  1.97458947435E-01  1.99942675236E-01
  2.02457644488E-01  2.05004248158E-01  2.07582884159E-01  2.10193955408E-01
  2.12837869890E-01  2.15515040723E-01  2.18225886219E-01  2.20970829954E-01
  2.23750300830E-01  2.26564733146E-01  2.29414566663E-01  2.32300246672E-01
  2.35222224068E-01  2.38180955415E-01  2.41176903020E-01  2.44210535008E-01
  2.47282325388E-01  2.50392754135E-01  2.53542307259E-01  2.56731476884E-01
  2.59960761325E-01  2.63230665164E-01  2.66541699330E-01  2.69894381178E-01
  2.73289234573E-01  2.76726789967E-01  2.80207584484E-01  2.83732162007E-01
  2.87301073257E-01  2.90914875885E-01  2.94574134554E-01  2.98279421030E-01
  3.02031314273E-01  3.05830400524E-01  3.09677273396E-01  3.13572533973E-01
  3.17516790896E-01  3.21510660464E-01  3.25554766726E-01  3.29649741583E-01
  3.33796224883E-01  3.37994864522E-01  3.42246316546E-01  3.46551245254E-01
  3.50910323299E-01  3.55324231796E-01  3.59793660426E-01  3.64319307549E-01
  3.68901880304E-01  3.73542094729E-01  3.78240675866E-01  3.82998357878E-01
  3.87815884162E-01  3.92694007468E-01  3.97633490011E-01  4.02635103596E-01
  4.07699629735E-01  4.12827859771E-01  4.18020595000E-01  4.23278646797E-01
  4.28602836744E-01  4.33993996756E-01  4.39452969213E-01  4.44980607091E-01
  4.50577774094E-01  4.56245344791E-01  4.61984204751E-01  4.67795250683E-01
  4.73679390574E-01  4.79637543834E-01  4.85670641437E-01  4.91779626065E-01
  4.97965452260E-01  5.04229086570E-01  5.10571507701E-01  5.16993706668E-01
  5.23496686955E-01  5.30081464663E-01  5.36749068679E-01  5.43500540829E-01
  5.50336936044E-01  5.57259322525E-01  5.64268781909E-01  5.71366409438E-01
  5.78553314131E-01  5.85830618957E-01  5.93199461008E-01  6.00660991682E-01
  6.08216376859E-01  6.15866797081E-01  6.23613447744E-01  6.31457539276E-01
  6.39400297334E-01  6.47442962989E-01  6.55586792924E-01  6.63833059630E-01
  6.72183051601E-01  6.80638073542E-01  6.89199446567E-01  6.97868508408E-01
  7.06646613622E-01  7.15535133808E-01  7.24535457814E-01  7.33648991960E-01
  7.42877160253E-01  7.52221404614E-01  7.61683185100E-01  7.71263980133E-01
  7.80965286732E-01  7.90788620746E-01  8.00735517091E-01  8.10807529990E-01
  8.21006233215E-01  8.31333220334E-01  8.41790104960E-01  8.52378521002E-01
  8.63100122923E-01  8.73956585994E-01  8.84949606559E-01  8.96080902301E-01
  9.07352212508E-01  9.18765298343E-01  9.30321943125E-01  9.42023952604E-01
  9.53873155242E-01  9.65871402501E-01  9.78020569132E-01  9.90322553467E-01
  1.00277927771E+00  1.01539268827E+00  1.02816475599E+00  1.04109747655E+00
  1.05419287071E+00  1.06745298465E+00  1.08087989028E+00  1.09447568561E+00
  1.10824249498E+00  1.12218246950E+00  1.13629778731E+00  1.15059065396E+00
  1.16506330275E+00  1.17971799504E+00  1.19455702068E+00  1.20958269827E+00
  1.22479737563E+00  1.24020343006E+00  1.25580326881E+00  1.27159932937E+00
  1.28759407991E+00  1.30379001965E+00  1.32018967923E+00  1.33679562114E+00
  1.35361044008E+00  1.37063676340E+00  1.38787725151E+00  1.40533459826E+00
  1.42301153141E+00  1.44091081300E+00  1.45903523983E+00  1.47738764389E+00
  1.49597089278E+00  1.51478789016E+00  1.53384157623E+00  1.55313492817E+00
  1.57267096060E+00  1.59245272606E+00  1.61248331551E+00  1.63276585875E+00
  1.65330352499E+00  1.67409952326E+00  1.69515710298E+00  1.71647955446E+00
  1.73807020935E+00  1.75993244126E+00  1.78206966618E+00  1.80448534312E+00
  1.82718297457E+00  1.85016610707E+00  1.87343833179E+00  1.89700328506E+00
  1.92086464895E+00  1.94502615185E+00  1.96949156905E+00  1.99426472331E+00
  2.01934948549E+00  2.04474977514E+00  2.07046956110E+00  2.09651286214E+00
  2.12288374758E+00  2.14958633793E+00  2.17662480551E+00  2.20400337515E+00
  2.23172632480E+00  2.25979798623E+00  2.28822274569E+00  2.31700504461E+00
  2.34614938028E+00  2.37566030657E+00  2.40554243461E+00  2.43580043356E+00
  2.46643903127E+00  2.49746301510E+00  2.52887723261E+00  2.56068659234E+00
  2.59289606455E+00  2.62551068205E+00  2.65853554093E+00  2.69197580140E+00
  2.72583668857E+00  2.76012349326E+00  2.79484157287E+00  2.82999635216E+00
  2.86559332413E+00  2.90163805090E+00  2.93813616451E+00  2.97509336787E+00
  3.01251543563E+00  3.05040821505E+00  3.08877762696E+00  3.12762966666E+00
  3.16697040486E+00  3.20680598863E+00  3.24714264236E+00  3.28798666873E+00
  3.32934444971E+00  3.37122244753E+00  3.41362720572E+00  3.45656535011E+00
  3.50004358986E+00  3.54406871855E+00  3.58864761518E+00  3.63378724530E+00
  3.67949466208E+00  3.72577700738E+00  3.77264151292E+00  3.82009550137E+00
  3.86814638751E+00  3.91680167940E+00  3.96606897952E+00  4.01595598598E+00
  4.06647049374E+00  4.11762039579E+00  4.16941368440E+00  4.22185845238E+00
  4.27496289434E+00  4.32873530794E+00  4.38318409524E+00  4.43831776398E+00
  4.49414492890E+00  4.55067431310E+00  4.60791474943E+00  4.66587518180E+00
  4.72456466667E+00  4.78399237438E+00  4.84416759064E+00  4.90509971793E+00
  4.96679827703E+00  5.02927290847E+00  5.09253337404E+00  5.15658955830E+00
  5.22145147018E+00  5.28712924446E+00  5.35363314346E+00  5.42097355852E+00
  5.48916101173E+00  5.55820615751E+00  5.62811978432E+00  5.69891281629E+00
  5.77059631498E+00  5.84318148109E+00  5.91667965619E+00  5.99110232453E+00
  6.06646111479E+00  6.14276780195E+00  6.22003430907E+00  6.29827270921E+00
  6.37749522727E+00  6.45771424194E+00  6.53894228759E+00  6.62119205629E+00
  6.70447639971E+00  6.78880833121E+00  6.87420102782E+00  6.96066783233E+00
  7.04822225535E+00  7.13687797743E+00  7.22664885122E+00  7.31754890360E+00
  7.40959233788E+00  7.50279353604E+00  7.59716706095E+00  7.69272765867E+00
  7.78949026074E+00  7.88746998651E+00  7.98668214552E+00  8.08714223986E+00
  8.18886596662E+00  8.29186922036E+00  8.39616809553E+00  8.50177888904E+00
  8.60871810281E+00  8.71700244629E+00  8.82664883914E+00  8.93767441383E+00
  9.05009651833E+00  9.16393271882E+00  9.27920080245E+00  9.39591878008E+00
  9.51410488913E+00  9.63377759643E+00  9.75495560108E+00  9.87765783739E+00
  1.00019034778E+01  1.01277119360E+01  1.02551028699E+01  1.03840961843E+01
  1.05147120350E+01  1.06469708308E+01  1.07808932374E+01  1.09165001806E+01
  1.10538128491E+01  1.11928526984E+01  1.13336414536E+01  1.14762011134E+01
  1.16205539530E+01  1.17667225278E+01  1.19147296769E+01  1.20645985268E+01
  1.22163524947E+01  1.23700152925E+01  1.25256109305E+01  1.26831637206E+01
  1.28426982808E+01  1.30042395388E+01  1.31678127356E+01  1.33334434300E+01
  1.35011575021E+01  1.36709811575E+01  1.38429409315E+01  1.40170636932E+01
  1.41933766496E+01  1.43719073499E+01  1.45526836901E+01  1.47357339167E+01
  1.49210866317E+01  1.51087707968E+01  1.52988157381E+01  1.54912511505E+01
  1.56861071024E+01  1.58834140404E+01  1.60832027942E+01  1.62855045812E+01
  1.64903510114E+01  1.66977740925E+01  1.69078062347E+01  1.71204802561E+01
  1.73358293874E+01  1.75538872772E+01  1.77746879977E+01  1.79982660493E+01
  1.82246563667E+01  1.84538943236E+01  1.86860157391E+01  1.89210568826E+01
  1.91590544797E+01  1.94000457180E+01  1.96440682529E+01  1.98911602135E+01
  2.01413602084E+01  2.03947073317E+01  2.06512411696E+01  2.09110018059E+01
  2.11740298287E+01  2.14403663369E+01  2.17100529458E+01  2.19831317948E+01
  2.22596455528E+01  2.25396374257E+01  2.28231511628E+01  2.31102310637E+01
  2.34009219852E+01  2.36952693484E+01  2.39933191456E+01  2.42951179478E+01
  2.46007129116E+01  2.49101517868E+01  2.52234829239E+01  2.55407552816E+01
  2.58620184342E+01  2.61873225798E+01  2.65167185479E+01  2.68502578071E+01
  2.71879924738E+01  2.75299753196E+01  2.78762597801E+01  2.82268999629E+01
  2.85819506562E+01  2.89414673375E+01  2.93055061819E+01  2.96741240713E+01
  3.00473786029E+01  3.04253280986E+01  3.08080316137E+01  3.11955489464E+01
  3.15879406471E+01  3.19852680278E+01  3.23875931717E+01  3.27949789429E+01
  3.32074889963E+01  3.36251877875E+01  3.40481405826E+01  3.44764134690E+01
  3.49100733651E+01  3.53491880312E+01  3.57938260798E+01  3.62440569866E+01
  3.66999511011E+01  3.71615796575E+01  3.76290147864E+01  3.81023295254E+01
  3.85815978310E+01  3.90668945896E+01  3.95582956301E+01  4.00558777347E+01
  4.05597186517E+01  4.10698971073E+01  4.15864928178E+01  4.21095865025E+01
  4.26392598957E+01  4.31755957600E+01  4.37186778990E+01  4.42685911704E+01
  4.48254214992E+01  4.53892558913E+01  4.59601824470E+01  4.65382903747E+01
  4.71236700050E+01  4.77164128045E+01  4.83166113907E+01  4.89243595457E+01
  4.95397522314E+01  5.01628856042E+01  5.07938570299E+01  5.14327650991E+01
  5.20797096425E+01  5.27347917465E+01  5.33981137690E+01  5.40697793554E+01
  5.47498934548E+01  5.54385623365E+01  5.61358936063E+01  5.68419962237E+01
  5.75569805187E+01  5.82809582090E+01  5.90140424176E+01  5.97563476903E+01
  6.05079900140E+01  6.12690868342E+01  6.20397570739E+01  6.28201211518E+01
  6.36103010015E+01  6.44104200902E+01  6.52206034380E+01  6.60409776378E+01
  6.68716708747E+01  6.77128129462E+01  6.85645352825E+01  6.94269709670E+01
  7.03002547569E+01  7.11845231047E+01  7.20799141790E+01  7.29865678865E+01
  7.39046258938E+01  7.48342316493E+01  7.57755304056E+01  7.67286692428E+01
  7.76937970907E+01  7.86710647524E+01  7.96606249280E+01  8.06626322384E+01
  8.16772432491E+01  8.27046164953E+01  8.37449125061E+01  8.47982938298E+01
  8.58649250595E+01  8.69449728584E+01  8.80386059862E+01  8.91459953253E+01
  9.02673139075E+01  9.14027369412E+01  9.25524418385E+01  9.37166082431E+01
  9.48954180585E+01  9.60890554759E+01  9.72977070038E+01  9.85215614964E+01
  9.97608101834E+01
  </PP_R>
  <PP_RAB>
  1.26650272994E-06  1.28243337315E-06  1.29856439919E-06  1.31489832856E-06
  1.33143771346E-06  1.34818513822E-06  1.36514321965E-06  1.38231460749E-06
  1.39970198479E-06  1.41730806838E-06  1.43513560923E-06  1.45318739295E-06
  1.47146624015E-06  1.48997500694E-06  1.50871658537E-06  1.52769390382E-06
  1.54690992756E-06  1.56636765912E-06  1.58607013882E-06  1.60602044520E-06
  1.62622169554E-06  1.64667704634E-06  1.66738969377E-06  1.68836287423E-06
  1.70959986482E-06  1.73110398388E-06  1.75287859145E-06  1.77492708987E-06
  1.79725292426E-06  1.81985958307E-06  1.84275059865E-06  1.86592954776E-06
  1.88940005215E-06  1.91316577915E-06  1.93723044219E-06  1.96159780143E-06
  1.98627166432E-06  2.01125588619E-06  2.03655437089E-06  2.06217107136E-06
  2.08810999025E-06  2.11437518057E-06  2.14097074632E-06  2.16790084310E-06
  2.19516967880E-06  2.22278151423E-06  2.25074066379E-06  2.27905149616E-06
  2.30771843496E-06  2.33674595947E-06  2.36613860528E-06  2.39590096507E-06
  2.42603768925E-06  2.45655348676E-06  2.48745312575E-06  2.51874143435E-06
  2.55042330143E-06  2.58250367733E-06  2.61498757469E-06  2.64788006918E-06
  2.68118630032E-06  2.71491147227E-06  2.74906085466E-06  2.78363978340E-06
  2.81865366152E-06  2.85410796001E-06  2.89000821868E-06  2.92636004701E-06
  2.96316912505E-06  3.00044120430E-06  3.03818210859E-06  3.07639773501E-06
  3.11509405484E-06  3.15427711445E-06  3.19395303628E-06  3.23412801977E-06
  3.27480834235E-06  3.31600036039E-06  3.35771051023E-06  3.39994530917E-06
  3.44271135648E-06  3.48601533445E-06  3.52986400940E-06  3.57426423279E-06
  3.61922294223E-06  3.66474716263E-06  3.71084400722E-06  3.75752067874E-06
  3.80478447051E-06  3.85264276760E-06  3.90110304795E-06  3.95017288360E-06
  3.99985994179E-06  4.05017198624E-06  4.10111687830E-06  4.15270257821E-06
  4.20493714636E-06  4.25782874448E-06  4.31138563701E-06  4.36561619232E-06
  4.42052888404E-06  4.47613229239E-06  4.53243510552E-06  4.58944612086E-06
  4.64717424649E-06  4.70562850255E-06  4.76481802264E-06  4.82475205523E-06
  4.88543996516E-06  4.94689123501E-06  5.00911546669E-06  5.07212238285E-06
  5.13592182845E-06  5.20052377228E-06  5.26593830854E-06  5.33217565837E-06
  5.39924617149E-06  5.46716032782E-06  5.53592873907E-06  5.60556215044E-06
  5.67607144231E-06  5.74746763189E-06  5.81976187498E-06  5.89296546770E-06
  5.96708984827E-06  6.04214659876E-06  6.11814744696E-06  6.19510426814E-06
  6.27302908696E-06  6.35193407935E-06  6.43183157435E-06  6.51273405613E-06
  6.59465416585E-06  6.67760470370E-06  6.76159863087E-06  6.84664907159E-06
  6.93276931515E-06  7.01997281803E-06  7.10827320593E-06  7.19768427599E-06
  7.28821999886E-06  7.37989452094E-06  7.47272216654E-06  7.56671744019E-06
  7.66189502883E-06  7.75826980416E-06  7.85585682493E-06  7.95467133932E-06
  8.05472878728E-06  8.15604480300E-06  8.25863521732E-06  8.36251606020E-06
  8.46770356322E-06  8.57421416215E-06  8.68206449948E-06  8.79127142706E-06
  8.90185200869E-06  9.01382352280E-06  9.12720346518E-06  9.24200955167E-06
  9.35825972095E-06  9.47597213736E-06  9.59516519369E-06  9.71585751410E-06
  9.83806795702E-06  9.96181561807E-06  1.00871198331E-05  1.02140001811E-05
  1.03424764874E-05  1.04725688267E-05  1.06042975262E-05  1.07376831688E-05
  1.08727465961E-05  1.10095089123E-05  1.11479914867E-05  1.12882159574E-05
  1.14302042348E-05  1.15739785048E-05  1.17195612326E-05  1.18669751656E-05
  1.20162433377E-05  1.21673890722E-05  1.23204359860E-05  1.24754079930E-05
  1.26323293079E-05  1.27912244500E-05  1.29521182468E-05  1.31150358386E-05
  1.32800026813E-05  1.34470445515E-05  1.36161875498E-05  1.37874581050E-05
  1.39608829787E-05  1.41364892687E-05  1.43143044139E-05  1.44943561983E-05
  1.46766727554E-05  1.48612825724E-05  1.50482144951E-05  1.52374977318E-05
  1.54291618587E-05  1.56232368234E-05  1.58197529507E-05  1.60187409466E-05
  1.62202319033E-05  1.64242573043E-05  1.66308490289E-05  1.68400393575E-05
  1.70518609765E-05  1.72663469835E-05  1.74835308923E-05  1.77034466384E-05
  1.79261285840E-05  1.81516115237E-05  1.83799306896E-05  1.86111217571E-05
  1.88452208503E-05  1.90822645475E-05  1.93222898874E-05  1.95653343744E-05
  1.98114359847E-05  2.00606331722E-05  2.03129648744E-05  2.05684705188E-05
  2.08271900284E-05  2.10891638289E-05  2.13544328542E-05  2.16230385530E-05
  2.18950228956E-05  2.21704283801E-05  2.24492980391E-05  2.27316754466E-05
  2.30176047247E-05  2.33071305503E-05  2.36002981625E-05  2.38971533692E-05
  2.41977425549E-05  2.45021126870E-05  2.48103113240E-05  2.51223866227E-05
  2.54383873455E-05  2.57583628680E-05  2.60823631871E-05  2.64104389285E-05
  2.67426413547E-05  2.70790223731E-05  2.74196345437E-05  2.77645310881E-05
  2.81137658970E-05  2.84673935389E-05  2.88254692690E-05  2.91880490374E-05
  2.95551894977E-05  2.99269480166E-05  3.03033826820E-05  3.06845523126E-05
  3.10705164669E-05  3.14613354526E-05  3.18570703360E-05  3.22577829515E-05
  3.26635359111E-05  3.30743926147E-05  3.34904172595E-05  3.39116748500E-05
  3.43382312088E-05  3.47701529861E-05  3.52075076705E-05  3.56503635996E-05
  3.60987899705E-05  3.65528568508E-05  3.70126351894E-05  3.74781968275E-05
  3.79496145101E-05  3.84269618972E-05  3.89103135753E-05  3.93997450690E-05
  3.98953328531E-05  4.03971543641E-05  4.09052880126E-05  4.14198131957E-05
  4.19408103088E-05  4.24683607588E-05  4.30025469766E-05  4.35434524299E-05
  4.40911616362E-05  4.46457601762E-05  4.52073347071E-05  4.57759729760E-05
  4.63517638338E-05  4.69347972490E-05  4.75251643218E-05  4.81229572981E-05
  4.87282695845E-05  4.93411957621E-05  4.99618316020E-05  5.05902740797E-05
  5.12266213906E-05  5.18709729654E-05  5.25234294852E-05  5.31840928977E-05
  5.38530664329E-05  5.45304546194E-05  5.52163633003E-05  5.59108996503E-05
  5.66141721922E-05  5.73262908136E-05  5.80473667846E-05  5.87775127748E-05
  5.95168428709E-05  6.02654725948E-05  6.10235189214E-05  6.17911002970E-05
  6.25683366577E-05  6.33553494483E-05  6.41522616412E-05  6.49591977555E-05
  6.57762838766E-05  6.66036476758E-05  6.74414184306E-05  6.82897270441E-05
  6.91487060665E-05  7.00184897148E-05  7.08992138947E-05  7.17910162209E-05
  7.26940360395E-05  7.36084144491E-05  7.45342943232E-05  7.54718203325E-05
  7.64211389672E-05  7.73823985604E-05  7.83557493108E-05  7.93413433064E-05
  8.03393345484E-05  8.13498789748E-05  8.23731344853E-05  8.34092609657E-05
  8.44584203128E-05  8.55207764599E-05  8.65964954023E-05  8.76857452233E-05
  8.87886961204E-05  8.99055204319E-05  9.10363926639E-05  9.21814895175E-05
  9.33409899163E-05  9.45150750347E-05  9.57039283259E-05  9.69077355506E-05
  9.81266848062E-05  9.93609665558E-05  1.00610773659E-04  1.01876301400E-04
  1.03157747520E-04  1.04455312248E-04  1.05769198331E-04  1.07099611067E-04
  1.08446758335E-04  1.09810850629E-04  1.11192101093E-04  1.12590725548E-04
  1.14006942533E-04  1.15440973335E-04  1.16893042024E-04  1.18363375489E-04
  1.19852203471E-04  1.21359758605E-04  1.22886276447E-04  1.24431995521E-04
  1.25997157346E-04  1.27582006484E-04  1.29186790570E-04  1.30811760355E-04
  1.32457169744E-04  1.34123275835E-04  1.35810338960E-04  1.37518622728E-04
  1.39248394059E-04  1.40999923236E-04  1.42773483938E-04  1.44569353287E-04