<PP_INFO>
Generated using "atomic" code by A. Dal Corso  (Quantum ESPRESSO distributi
Author: Davide Ceresoli   Generation date:  9Feb2012                       
Ga                                                                         
    1        The Pseudo was generated with a Scalar-Relativistic Calculation
    0 2.0000000E+00    L component and cutoff radius for Local Potential
nl pn  l   occ               Rcut            Rcut US             E pseu
3D  3  2 10.00      2.20000000000      2.20000000000     -2.14975487387
4P  2  1  1.00      2.00000000000      2.00000000000     -0.73072026884
4S  1  0  1.00      2.00000000000      2.00000000000     -1.28055310192
</PP_INFO>


<PP_HEADER>
   0                   Version Number
  Ga                   Element
   NC                  Norm - Conserving pseudopotential
    T                  Nonlinear Core Correction
 SLA  PW   PBX  PBC    PBE    Exchange-Correlation functional
   13.00000000000      Z valence
 -152.44637027075      Total energy
      0.000      0.000 Suggested cutoff for wfc and rho
    2                  Max angular momentum component
 1605                  Number of points in mesh
    5    2             Number of Wavefunctions, Number of Projectors
 Wavefunctions         nl  l   occ
                       4S  0  1.00
                       5S  0  0.00
                       4P  1  1.00
                       5P  1  0.00
                       3D  2 10.00
</PP_HEADER>


<PP_MESH>
  <PP_R>
  1.08213750936E-05  1.09301317214E-05  1.10399813715E-05  1.11509350288E-05
  1.12630037890E-05  1.13761988590E-05  1.14905315583E-05  1.16060133203E-05
  1.17226556934E-05  1.18404703418E-05  1.19594690471E-05  1.20796637092E-05
  1.22010663478E-05  1.23236891032E-05  1.24475442378E-05  1.25726441372E-05
  1.26990013115E-05  1.28266283964E-05  1.29555381549E-05  1.30857434781E-05
  1.32172573864E-05  1.33500930316E-05  1.34842636971E-05  1.36197828003E-05
  1.37566638931E-05  1.38949206637E-05  1.40345669380E-05  1.41756166807E-05
  1.43180839969E-05  1.44619831334E-05  1.46073284802E-05  1.47541345721E-05
  1.49024160897E-05  1.50521878614E-05  1.52034648644E-05  1.53562622265E-05
  1.55105952277E-05  1.56664793013E-05  1.58239300359E-05  1.59829631767E-05
  1.61435946271E-05  1.63058404505E-05  1.64697168714E-05  1.66352402778E-05
  1.68024272221E-05  1.69712944231E-05  1.71418587677E-05  1.73141373124E-05
  1.74881472853E-05  1.76639060876E-05  1.78414312951E-05  1.80207406606E-05
  1.82018521152E-05  1.83847837702E-05  1.85695539189E-05  1.87561810385E-05
  1.89446837918E-05  1.91350810293E-05  1.93273917908E-05  1.95216353076E-05
  1.97178310042E-05  1.99159985003E-05  2.01161576129E-05  2.03183283580E-05
  2.05225309529E-05  2.07287858179E-05  2.09371135788E-05  2.11475350686E-05
  2.13600713294E-05  2.15747436152E-05  2.17915733933E-05  2.20105823470E-05
  2.22317923772E-05  2.24552256052E-05  2.26809043744E-05  2.29088512530E-05
  2.31390890358E-05  2.33716407468E-05  2.36065296413E-05  2.38437792085E-05
  2.40834131734E-05  2.43254554998E-05  2.45699303920E-05  2.48168622976E-05
  2.50662759102E-05  2.53181961713E-05  2.55726482731E-05  2.58296576610E-05
  2.60892500363E-05  2.63514513582E-05  2.66162878473E-05  2.68837859873E-05
  2.71539725283E-05  2.74268744892E-05  2.77025191605E-05  2.79809341067E-05
  2.82621471696E-05  2.85461864708E-05  2.88330804145E-05  2.91228576902E-05
  2.94155472760E-05  2.97111784409E-05  3.00097807485E-05  3.03113840592E-05
  3.06160185336E-05  3.09237146353E-05  3.12345031342E-05  3.15484151095E-05
  3.18654819526E-05  3.21857353705E-05  3.25092073887E-05  3.28359303547E-05
  3.31659369411E-05  3.34992601489E-05  3.38359333106E-05  3.41759900938E-05
  3.45194645045E-05  3.48663908904E-05  3.52168039445E-05  3.55707387083E-05
  3.59282305756E-05  3.62893152960E-05  3.66540289781E-05  3.70224080936E-05
  3.73944894808E-05  3.77703103481E-05  3.81499082779E-05  3.85333212304E-05
  3.89205875470E-05  3.93117459549E-05  3.97068355701E-05  4.01058959020E-05
  4.05089668569E-05  4.09160887422E-05  4.13273022705E-05  4.17426485634E-05
  4.21621691560E-05  4.25859060007E-05  4.30139014714E-05  4.34461983681E-05
  4.38828399209E-05  4.43238697942E-05  4.47693320915E-05  4.52192713592E-05
  4.56737325918E-05  4.61327612357E-05  4.65964031942E-05  4.70647048318E-05
  4.75377129792E-05  4.80154749374E-05  4.84980384831E-05  4.89854518732E-05
  4.94777638492E-05  4.99750236428E-05  5.04772809805E-05  5.09845860883E-05
  5.14969896972E-05  5.20145430480E-05  5.25372978964E-05  5.30653065184E-05
  5.35986217153E-05  5.41372968190E-05  5.46813856975E-05  5.52309427602E-05
  5.57860229631E-05  5.63466818149E-05  5.69129753818E-05  5.74849602936E-05
  5.80626937494E-05  5.86462335229E-05  5.92356379687E-05  5.98309660276E-05
  6.04322772330E-05  6.10396317164E-05  6.16530902140E-05  6.22727140719E-05
  6.28985652531E-05  6.35307063432E-05  6.41692005569E-05  6.48141117442E-05
  6.54655043966E-05  6.61234436541E-05  6.67879953110E-05  6.74592258231E-05
  6.81372023140E-05  6.88219925819E-05  6.95136651064E-05  7.02122890553E-05
  7.09179342917E-05  7.16306713806E-05  7.23505715963E-05  7.30777069295E-05
  7.38121500943E-05  7.45539745356E-05  7.53032544364E-05  7.60600647255E-05
  7.68244810844E-05  7.75965799555E-05  7.83764385492E-05  7.91641348521E-05
  7.99597476344E-05  8.07633564581E-05  8.15750416848E-05  8.23948844836E-05
  8.32229668396E-05  8.40593715616E-05  8.49041822907E-05  8.57574835089E-05
  8.66193605469E-05  8.74898995931E-05  8.83691877022E-05  8.92573128037E-05
  9.01543637109E-05  9.10604301295E-05  9.19756026671E-05  9.28999728416E-05
  9.38336330907E-05  9.47766767814E-05  9.57291982187E-05  9.66912926557E-05
  9.76630563024E-05  9.86445863362E-05  9.96359809109E-05  1.00637339167E-04
  1.01648761240E-04  1.02670348275E-04  1.03702202429E-04  1.04744426891E-04
  1.05797125882E-04  1.06860404674E-04  1.07934369596E-04  1.09019128044E-04
  1.10114788497E-04  1.11221460519E-04  1.12339254781E-04  1.13468283062E-04
  1.14608658265E-04  1.15760494430E-04  1.16923906741E-04  1.18099011540E-04
  1.19285926338E-04  1.20484769829E-04  1.21695661897E-04  1.22918723632E-04
  1.24154077342E-04  1.25401846564E-04  1.26662156074E-04  1.27935131906E-04
  1.29220901358E-04  1.30519593007E-04  1.31831336725E-04  1.33156263686E-04
  1.34494506384E-04  1.35846198645E-04  1.37211475639E-04  1.38590473895E-04
  1.39983331314E-04  1.41390187183E-04  1.42811182188E-04  1.44246458431E-04
  1.45696159439E-04  1.47160430185E-04  1.48639417097E-04  1.50133268074E-04
  1.51642132503E-04  1.53166161271E-04  1.54705506784E-04  1.56260322976E-04
  1.57830765330E-04  1.59416990893E-04  1.61019158287E-04  1.62637427732E-04
  1.64271961055E-04  1.65922921711E-04  1.67590474797E-04  1.69274787070E-04
  1.70976026964E-04  1.72694364602E-04  1.74429971821E-04  1.76183022182E-04
  1.77953690992E-04  1.79742155320E-04  1.81548594013E-04  1.83373187717E-04
  1.85216118892E-04  1.87077571834E-04  1.88957732688E-04  1.90856789474E-04
  1.92774932097E-04  1.94712352374E-04  1.96669244049E-04  1.98645802812E-04
  2.00642226321E-04  2.02658714219E-04  2.04695468158E-04  2.06752691815E-04
  2.08830590913E-04  2.10929373244E-04  2.13049248688E-04  2.15190429234E-04
  2.17353129003E-04  2.19537564266E-04  2.21743953468E-04  2.23972517250E-04
  2.26223478470E-04  2.28497062227E-04  2.30793495881E-04  2.33113009077E-04
  2.35455833767E-04  2.37822204238E-04  2.40212357127E-04  2.42626531451E-04
  2.45064968632E-04  2.47527912513E-04  2.50015609392E-04  2.52528308040E-04
  2.55066259729E-04  2.57629718257E-04  2.60218939971E-04  2.62834183796E-04
  2.65475711259E-04  2.68143786514E-04  2.70838676371E-04  2.73560650321E-04
  2.76309980564E-04  2.79086942036E-04  2.81891812435E-04  2.84724872249E-04
  2.87586404788E-04  2.90476696208E-04  2.93396035539E-04  2.96344714718E-04
  2.99323028615E-04  3.02331275065E-04  3.05369754894E-04  3.08438771953E-04
  3.11538633146E-04  3.14669648463E-04  3.17832131006E-04  3.21026397027E-04
  3.24252765956E-04  3.27511560431E-04  3.30803106336E-04  3.34127732826E-04
  3.37485772369E-04  3.40877560769E-04  3.44303437210E-04  3.47763744282E-04
  3.51258828018E-04  3.54789037929E-04  3.58354727040E-04  3.61956251922E-04
  3.65593972731E-04  3.69268253242E-04  3.72979460886E-04  3.76727966787E-04
  3.80514145798E-04  3.84338376542E-04  3.88201041443E-04  3.92102526771E-04
  3.96043222680E-04  4.00023523240E-04  4.04043826486E-04  4.08104534452E-04
  4.12206053211E-04  4.16348792919E-04  4.20533167853E-04  4.24759596454E-04
  4.29028501369E-04  4.33340309492E-04  4.37695452006E-04  4.42094364431E-04
  4.46537486661E-04  4.51025263011E-04  4.55558142263E-04  4.60136577710E-04
  4.64761027197E-04  4.69431953175E-04  4.74149822739E-04  4.78915107680E-04
  4.83728284532E-04  4.88589834614E-04  4.93500244088E-04  4.98460003997E-04
  5.03469610322E-04  5.08529564028E-04  5.13640371113E-04  5.18802542664E-04
  5.24016594902E-04  5.29283049235E-04  5.34602432315E-04  5.39975276083E-04
  5.45402117829E-04  5.50883500241E-04  5.56419971463E-04  5.62012085145E-04
  5.67660400504E-04  5.73365482376E-04  5.79127901274E-04  5.84948233445E-04
  5.90827060927E-04  5.96764971607E-04  6.02762559282E-04  6.08820423715E-04
  6.14939170697E-04  6.21119412109E-04  6.27361765980E-04  6.33666856550E-04
  6.40035314335E-04  6.46467776183E-04  6.52964885349E-04  6.59527291546E-04
  6.66155651023E-04  6.72850626620E-04  6.79612887840E-04  6.86443110915E-04
  6.93341978874E-04  7.00310181608E-04  7.07348415944E-04  7.14457385711E-04
  7.21637801812E-04  7.28890382294E-04  7.36215852422E-04  7.43614944749E-04
  7.51088399190E-04  7.58636963097E-04  7.66261391332E-04  7.73962446345E-04
  7.81740898248E-04  7.89597524892E-04  7.97533111946E-04  8.05548452977E-04
  8.13644349523E-04  8.21821611183E-04  8.30081055689E-04  8.38423508992E-04
  8.46849805345E-04  8.55360787384E-04  8.63957306214E-04  8.72640221495E-04
  8.81410401526E-04  8.90268723331E-04  8.99216072750E-04  9.08253344526E-04
  9.17381442393E-04  9.26601279169E-04  9.35913776845E-04  9.45319866679E-04
  9.54820489287E-04  9.64416594740E-04  9.74109142655E-04  9.83899102297E-04
  9.93787452669E-04  1.00377518261E-03  1.01386329092E-03  1.02405278639E-03
  1.03434468800E-03  1.04474002493E-03  1.05523983674E-03  1.06584517342E-03
  1.07655709549E-03  1.08737667418E-03  1.09830499144E-03  1.10934314011E-03
  1.12049222402E-03  1.13175335809E-03  1.14312766844E-03  1.15461629251E-03
  1.16622037916E-03  1.17794108883E-03  1.18977959359E-03  1.20173707730E-03
  1.21381473572E-03  1.22601377662E-03  1.23833541992E-03  1.25078089780E-03
  1.26335145481E-03  1.27604834801E-03  1.28887284712E-03  1.30182623458E-03
  1.31490980575E-03  1.32812486900E-03  1.34147274584E-03  1.35495477108E-03
  1.36857229292E-03  1.38232667313E-03  1.39621928716E-03  1.41025152428E-03
  1.42442478773E-03  1.43874049485E-03  1.45320007721E-03  1.46780498079E-03
  1.48255666610E-03  1.49745660830E-03  1.51250629742E-03  1.52770723842E-03
  1.54306095143E-03  1.55856897181E-03  1.57423285039E-03  1.59005415356E-03
  1.60603446348E-03  1.62217537818E-03  1.63847851177E-03  1.65494549458E-03
  1.67157797331E-03  1.68837761124E-03  1.70534608833E-03  1.72248510146E-03
  1.73979636453E-03  1.75728160868E-03  1.77494258246E-03  1.79278105198E-03
  1.81079880110E-03  1.82899763161E-03  1.84737936340E-03  1.86594583467E-03
  1.88469890208E-03  1.90364044095E-03  1.92277234545E-03  1.94209652879E-03
  1.96161492339E-03  1.98132948113E-03  2.00124217346E-03  2.02135499168E-03
  2.04166994709E-03  2.06218907118E-03  2.08291441591E-03  2.10384805381E-03
  2.12499207827E-03  2.14634860371E-03  2.16791976580E-03  2.18970772167E-03
  2.21171465014E-03  2.23394275191E-03  2.25639424983E-03  2.27907138905E-03
  2.30197643730E-03  2.32511168512E-03  2.34847944605E-03  2.37208205687E-03
  2.39592187788E-03  2.42000129308E-03  2.44432271041E-03  2.46888856206E-03
  2.49370130462E-03  2.51876341939E-03  2.54407741260E-03  2.56964581567E-03
  2.59547118547E-03  2.62155610454E-03  2.64790318142E-03  2.67451505081E-03
  2.70139437394E-03  2.72854383876E-03  2.75596616024E-03  2.78366408062E-03
  2.81164036974E-03  2.83989782524E-03  2.86843927288E-03  2.89726756685E-03
  2.92638558998E-03  2.95579625411E-03  2.98550250033E-03  3.01550729929E-03
  3.04581365149E-03  3.07642458760E-03  3.10734316873E-03  3.13857248676E-03
  3.17011566466E-03  3.20197585676E-03  3.23415624912E-03  3.26666005980E-03
  3.29949053921E-03  3.33265097042E-03  3.36614466951E-03  3.39997498587E-03
  3.43414530256E-03  3.46865903664E-03  3.50351963951E-03  3.53873059727E-03
  3.57429543104E-03  3.61021769733E-03  3.64650098840E-03  3.68314893261E-03
  3.72016519478E-03  3.75755347656E-03  3.79531751683E-03  3.83346109201E-03
  3.87198801650E-03  3.91090214301E-03  3.95020736300E-03  3.98990760701E-03
  4.03000684512E-03  4.07050908726E-03  4.11141838370E-03  4.15273882541E-03
  4.19447454447E-03  4.23662971447E-03  4.27920855097E-03  4.32221531190E-03
  4.36565429796E-03  4.40952985308E-03  4.45384636487E-03  4.49860826500E-03
  4.54382002971E-03  4.58948618021E-03  4.63561128315E-03  4.68219995108E-03
  4.72925684291E-03  4.77678666437E-03  4.82479416847E-03  4.87328415601E-03
  4.92226147603E-03  4.97173102629E-03  5.02169775381E-03  5.07216665528E-03
  5.12314277764E-03  5.17463121855E-03  5.22663712690E-03  5.27916570331E-03
  5.33222220070E-03  5.38581192474E-03  5.43994023447E-03  5.49461254276E-03
  5.54983431687E-03  5.60561107905E-03  5.66194840700E-03  5.71885193451E-03
  5.77632735198E-03  5.83438040700E-03  5.89301690493E-03  5.95224270945E-03
  6.01206374321E-03  6.07248598835E-03  6.13351548715E-03  6.19515834260E-03
  6.25742071906E-03  6.32030884280E-03  6.38382900270E-03  6.44798755081E-03
  6.51279090305E-03  6.57824553981E-03  6.64435800661E-03  6.71113491474E-03
  6.77858294196E-03  6.84670883312E-03  6.91551940087E-03  6.98502152632E-03
  7.05522215975E-03  7.12612832127E-03  7.19774710156E-03  7.27008566256E-03
  7.34315123819E-03  7.41695113506E-03  7.49149273322E-03  7.56678348690E-03
  7.64283092523E-03  7.71964265302E-03  7.79722635152E-03  7.87558977914E-03
  7.95474077231E-03  8.03468724618E-03  8.11543719548E-03  8.19699869525E-03
  8.27937990173E-03  8.36258905309E-03  8.44663447033E-03  8.53152455806E-03
  8.61726780535E-03  8.70387278660E-03  8.79134816239E-03  8.87970268031E-03
  8.96894517591E-03  9.05908457350E-03  9.15012988709E-03  9.24209022130E-03
  9.33497477223E-03  9.42879282841E-03  9.52355377174E-03  9.61926707838E-03
  9.71594231975E-03  9.81358916344E-03  9.91221737423E-03  1.00118368150E-02
  1.01124574478E-02  1.02140893348E-02  1.03167426392E-02  1.04204276265E-02
  1.05251546653E-02  1.06309342282E-02  1.07377768935E-02  1.08456933454E-02
  1.09546943756E-02  1.10647908845E-02  1.11759938816E-02  1.12883144875E-02
  1.14017639342E-02  1.15163535667E-02  1.16320948443E-02  1.17489993410E-02
  1.18670787475E-02  1.19863448717E-02  1.21068096404E-02  1.22284851001E-02
  1.23513834186E-02  1.24755168856E-02  1.26008979148E-02  1.27275390442E-02
  1.28554529382E-02  1.29846523882E-02  1.31151503142E-02  1.32469597662E-02
  1.33800939252E-02  1.35145661048E-02  1.36503897522E-02  1.37875784500E-02
  1.39261459171E-02  1.40661060104E-02  1.42074727260E-02  1.43502602007E-02
  1.44944827135E-02  1.46401546865E-02  1.47872906873E-02  1.49359054294E-02
  1.50860137745E-02  1.52376307336E-02  1.53907714684E-02  1.55454512932E-02
  1.57016856761E-02  1.58594902407E-02  1.60188807675E-02  1.61798731957E-02
  1.63424836247E-02  1.65067283157E-02  1.66726236933E-02  1.68401863471E-02
  1.70094330336E-02  1.71803806776E-02  1.73530463740E-02  1.75274473895E-02
  1.77036011643E-02  1.78815253140E-02  1.80612376311E-02  1.82427560871E-02
  1.84260988338E-02  1.86112842058E-02  1.87983307217E-02  1.89872570864E-02
  1.91780821926E-02  1.93708251230E-02  1.95655051520E-02  1.97621417479E-02
  1.99607545744E-02  2.01613634930E-02  2.03639885647E-02  2.05686500523E-02
  2.07753684220E-02  2.09841643459E-02  2.11950587037E-02  2.14080725850E-02
  2.16232272915E-02  2.18405443387E-02  2.20600454585E-02  2.22817526012E-02
  2.25056879378E-02  2.27318738619E-02  2.29603329923E-02  2.31910881752E-02
  2.34241624862E-02  2.36595792330E-02  2.38973619575E-02  2.41375344380E-02
  2.43801206921E-02  2.46251449786E-02  2.48726318001E-02  2.51226059055E-02
  2.53750922925E-02  2.56301162098E-02  2.58877031601E-02  2.61478789023E-02
  2.64106694541E-02  2.66761010949E-02  2.69442003681E-02  2.72149940838E-02
  2.74885093215E-02  2.77647734331E-02  2.80438140451E-02  2.83256590620E-02
  2.86103366683E-02  2.88978753321E-02  2.91883038076E-02  2.94816511378E-02
  2.97779466576E-02  3.00772199970E-02  3.03795010834E-02  3.06848201452E-02
  3.09932077146E-02  3.13046946306E-02  3.16193120422E-02  3.19370914113E-02
  3.22580645161E-02  3.25822634543E-02  3.29097206460E-02  3.32404688372E-02
  3.35745411030E-02  3.39119708508E-02  3.42527918240E-02  3.45970381050E-02
  3.49447441185E-02  3.52959446357E-02  3.56506747766E-02  3.60089700148E-02
  3.63708661800E-02  3.67363994621E-02  3.71056064147E-02  3.74785239590E-02
  3.78551893868E-02  3.82356403652E-02  3.86199149394E-02  3.90080515373E-02
  3.94000889729E-02  3.97960664502E-02  4.01960235673E-02  4.06000003203E-02
  4.10080371071E-02  4.14201747319E-02  4.18364544086E-02  4.22569177656E-02
  4.26816068496E-02  4.31105641299E-02  4.35438325025E-02  4.39814552946E-02
  4.44234762689E-02  4.48699396279E-02  4.53208900182E-02  4.57763725353E-02
  4.62364327278E-02  4.67011166020E-02  4.71704706269E-02  4.76445417381E-02
  4.81233773433E-02  4.86070253262E-02  4.90955340522E-02  4.95889523725E-02
  5.00873296294E-02  5.05907156610E-02  5.10991608063E-02  5.16127159102E-02
  5.21314323288E-02  5.26553619340E-02  5.31845571194E-02  5.37190708047E-02
  5.42589564419E-02  5.48042680200E-02  5.53550600705E-02  5.59113876731E-02
  5.64733064612E-02  5.70408726269E-02  5.76141429274E-02  5.81931746903E-02
  5.87780258190E-02  5.93687547994E-02  5.99654207047E-02  6.05680832021E-02
  6.11768025582E-02  6.17916396456E-02  6.24126559485E-02  6.30399135689E-02
  6.36734752332E-02  6.43134042982E-02  6.49597647571E-02  6.56126212467E-02
  6.62720390530E-02  6.69380841185E-02  6.76108230482E-02  6.82903231165E-02
  6.89766522741E-02  6.96698791544E-02  7.03700730806E-02  7.10773040728E-02
  7.17916428546E-02  7.25131608605E-02  7.32419302430E-02  7.39780238795E-02
  7.47215153800E-02  7.54724790944E-02  7.62309901195E-02  7.69971243072E-02
  7.77709582715E-02  7.85525693964E-02  7.93420358438E-02  8.01394365608E-02
  8.09448512883E-02  8.17583605683E-02  8.25800457526E-02  8.34099890102E-02
  8.42482733362E-02  8.50949825598E-02  8.59502013526E-02  8.68140152371E-02
  8.76865105955E-02  8.85677746780E-02  8.94578956118E-02  9.03569624096E-02
  9.12650649791E-02  9.21822941311E-02  9.31087415893E-02  9.40444999993E-02
  9.49896629376E-02  9.59443249214E-02  9.69085814176E-02  9.78825288528E-02
  9.88662646224E-02  9.98598871008E-02  1.00863495651E-01  1.01877190635E-01
  1.02901073423E-01  1.03935246404E-01  1.04979812996E-01  1.06034877658E-01
  1.07100545895E-01  1.08176924276E-01  1.09264120439E-01  1.10362243106E-01
  1.11471402089E-01  1.12591708305E-01  1.13723273786E-01  1.14866211689E-01
  1.16020636309E-01  1.17186663089E-01  1.18364408633E-01  1.19553990716E-01
  1.20755528299E-01  1.21969141534E-01  1.23194951786E-01  1.24433081635E-01
  1.25683654897E-01  1.26946796628E-01  1.28222633145E-01  1.29511292032E-01
  1.30812902156E-01  1.32127593680E-01  1.33455498073E-01  1.34796748127E-01
  1.36151477968E-01  1.37519823070E-01  1.38901920269E-01  1.40297907776E-01
  1.41707925191E-01  1.43132113516E-01  1.44570615172E-01  1.46023574010E-01
  1.47491135327E-01  1.48973445881E-01  1.50470653903E-01  1.51982909116E-01
  1.53510362746E-01  1.55053167541E-01  1.56611477782E-01  1.58185449301E-01
  1.59775239497E-01  1.61381007349E-01  1.63002913438E-01  1.64641119953E-01
  1.66295790717E-01  1.67967091199E-01  1.69655188531E-01  1.71360251522E-01
  1.73082450681E-01  1.74821958230E-01  1.76578948120E-01  1.78353596052E-01
  1.80146079493E-01  1.81956577691E-01  1.83785271699E-01  1.85632344387E-01
  1.87497980465E-01  1.89382366496E-01  1.91285690922E-01  1.93208144077E-01
  1.95149918207E-01  1.97111207491E-01  1.99092208061E-01  2.01093118017E-01
  2.03114137452E-01  2.05155468471E-01  2.07217315207E-01  2.09299883848E-01
  2.11403382651E-01  2.13528021969E-01  2.15674014267E-01  2.17841574146E-01
  2.20030918364E-01  2.22242265857E-01  2.24475837762E-01  2.26731857438E-01
  2.29010550489E-01  2.31312144785E-01  2.33636870489E-01  2.35984960075E-01
  2.38356648353E-01  2.40752172494E-01  2.43171772054E-01  2.45615688993E-01
  2.48084167706E-01  2.50577455042E-01  2.53095800333E-01  2.55639455414E-01
  2.58208674655E-01  2.60803714978E-01  2.63424835889E-01  2.66072299504E-01
  2.68746370571E-01  2.71447316498E-01  2.74175407383E-01  2.76930916038E-01
  2.79714118015E-01  2.82525291637E-01  2.85364718023E-01  2.88232681119E-01
  2.91129467724E-01  2.94055367517E-01  2.97010673093E-01  2.99995679983E-01
  3.03010686692E-01  3.06055994721E-01  3.09131908605E-01  3.12238735938E-01
  3.15376787404E-01  3.18546376812E-01  3.21747821123E-01  3.24981440484E-01
  3.28247558260E-01  3.31546501066E-01  3.34878598798E-01  3.38244184669E-01
  3.41643595240E-01  3.45077170455E-01  3.48545253675E-01  3.52048191711E-01
  3.55586334859E-01  3.59160036938E-01  3.62769655319E-01  3.66415550968E-01
  3.70098088477E-01  3.73817636104E-01  3.77574565806E-01  3.81369253279E-01
  3.85202077995E-01  3.89073423240E-01  3.92983676152E-01  3.96933227758E-01
  4.00922473019E-01  4.04951810860E-01  4.09021644220E-01  4.13132380086E-01
  4.17284429534E-01  4.21478207772E-01  4.25714134183E-01  4.29992632361E-01
  4.34314130161E-01  4.38679059736E-01  4.43087857583E-01  4.47540964585E-01
  4.52038826056E-01  4.56581891786E-01  4.61170616086E-01  4.65805457832E-01
  4.70486880512E-01  4.75215352272E-01  4.79991345964E-01  4.84815339190E-01
  4.89687814353E-01  4.94609258707E-01  4.99580164398E-01  5.04601028522E-01
  5.09672353170E-01  5.14794645477E-01  5.19968417678E-01  5.25194187154E-01
  5.30472476487E-01  5.35803813509E-01  5.41188731359E-01  5.46627768534E-01
  5.52121468940E-01  5.57670381954E-01  5.63275062470E-01  5.68936070962E-01
  5.74653973536E-01  5.80429341985E-01  5.86262753853E-01  5.92154792484E-01
  5.98106047089E-01  6.04117112796E-01  6.10188590718E-01  6.16321088007E-01
  6.22515217919E-01  6.28771599872E-01  6.35090859508E-01  6.41473628760E-01
  6.47920545909E-01  6.54432255653E-01  6.61009409168E-01  6.67652664174E-01
  6.74362685003E-01  6.81140142663E-01  6.87985714904E-01  6.94900086290E-01
  7.01883948264E-01  7.08937999218E-01  7.16062944563E-01  7.23259496798E-01
  7.30528375586E-01  7.37870307821E-01  7.45286027701E-01  7.52776276805E-01
  7.60341804163E-01  7.67983366336E-01  7.75701727486E-01  7.83497659455E-01
  7.91371941842E-01  7.99325362083E-01  8.07358715527E-01  8.15472805515E-01
  8.23668443463E-01  8.31946448942E-01  8.40307649759E-01  8.48752882041E-01
  8.57282990319E-01  8.65898827610E-01  8.74601255505E-01  8.83391144255E-01
  8.92269372855E-01  9.01236829137E-01  9.10294409852E-01  9.19443020767E-01
  9.28683576750E-01  9.38017001864E-01  9.47444229461E-01  9.56966202270E-01
  9.66583872497E-01  9.76298201916E-01  9.86110161969E-01  9.96020733861E-01
  1.00603090866E+00  1.01614168738E+00  1.02635408112E+00  1.03666911112E+00
  1.04708780890E+00  1.05761121633E+00  1.06824038576E+00  1.07897638013E+00
  1.08982027303E+00  1.10077314886E+00  1.11183610293E+00  1.12301024154E+00
  1.13429668210E+00  1.14569655328E+00  1.15721099507E+00  1.16884115892E+00
  1.18058820786E+00  1.19245331661E+00  1.20443767168E+00  1.21654247152E+00
  1.22876892663E+00  1.24111825965E+00  1.25359170553E+00  1.26619051162E+00
  1.27891593782E+00  1.29176925669E+00  1.30475175355E+00  1.31786472668E+00
  1.33110948737E+00  1.34448736013E+00  1.35799968274E+00  1.37164780645E+00
  1.38543309609E+00  1.39935693019E+00  1.41342070115E+00  1.42762581535E+00
  1.44197369333E+00  1.45646576988E+00  1.47110349422E+00  1.48588833014E+00
  1.50082175612E+00  1.51590526553E+00  1.53114036674E+00  1.54652858325E+00
  1.56207145391E+00  1.57777053302E+00  1.59362739050E+00  1.60964361205E+00
  1.62582079929E+00  1.64216056997E+00  1.65866455808E+00  1.67533441403E+00
  1.69217180481E+00  1.70917841418E+00  1.72635594282E+00  1.74370610849E+00
  1.76123064623E+00  1.77893130850E+00  1.79680986538E+00  1.81486810475E+00
  1.83310783243E+00  1.85153087243E+00  1.87013906706E+00  1.88893427716E+00
  1.90791838225E+00  1.92709328078E+00  1.94646089024E+00  1.96602314741E+00
  1.98578200853E+00  2.00573944951E+00  2.02589746610E+00  2.04625807413E+00
  2.06682330968E+00  2.08759522927E+00  2.10857591013E+00  2.12976745034E+00
  2.15117196906E+00  2.17279160678E+00  2.19462852547E+00  2.21668490883E+00
  2.23896296254E+00  2.26146491441E+00  2.28419301465E+00  2.30714953610E+00
  2.33033677443E+00  2.35375704838E+00  2.37741269999E+00  2.40130609485E+00
  2.42543962232E+00  2.44981569578E+00  2.47443675285E+00  2.49930525565E+00
  2.52442369107E+00  2.54979457095E+00  2.57542043242E+00  2.60130383808E+00
  2.62744737629E+00  2.65385366143E+00  2.68052533414E+00  2.70746506162E+00
  2.73467553787E+00  2.76215948394E+00  2.78991964827E+00  2.81795880689E+00
  2.84627976373E+00  2.87488535092E+00  2.90377842905E+00  2.93296188744E+00
  2.96243864446E+00  2.99221164781E+00  3.02228387482E+00  3.05265833274E+00
  3.08333805903E+00  3.11432612170E+00  3.14562561958E+00  3.17723968264E+00
  3.20917147232E+00  3.24142418182E+00  3.27400103644E+00  3.30690529389E+00
  3.34014024462E+00  3.37370921216E+00  3.40761555344E+00  3.44186265911E+00
  3.47645395392E+00  3.51139289701E+00  3.54668298233E+00  3.58232773889E+00
  3.61833073122E+00  3.65469555963E+00  3.69142586065E+00  3.72852530733E+00
  3.76599760964E+00  3.80384651486E+00  3.84207580790E+00  3.88068931172E+00
  3.91969088770E+00  3.95908443604E+00  3.99887389612E+00  4.03906324693E+00
  4.07965650742E+00  4.12065773697E+00  4.16207103572E+00  4.20390054505E+00
  4.24615044793E+00  4.28882496940E+00  4.33192837693E+00  4.37546498092E+00
  4.41943913505E+00  4.46385523677E+00  4.50871772774E+00  4.55403109424E+00
  4.59979986764E+00  4.64602862487E+00  4.69272198883E+00  4.73988462889E+00
  4.78752126137E+00  4.83563664997E+00  4.88423560626E+00  4.93332299018E+00
  4.98290371051E+00  5.03298272537E+00  5.08356504269E+00  5.13465572075E+00
  5.18625986866E+00  5.23838264689E+00  5.29102926774E+00  5.34420499593E+00
  5.39791514907E+00  5.45216509822E+00  5.50696026843E+00  5.56230613925E+00
  5.61820824533E+00  5.67467217691E+00  5.73170358043E+00  5.78930815909E+00
  5.84749167339E+00  5.90625994173E+00  5.96561884099E+00  6.02557430710E+00
  6.08613233567E+00  6.14729898254E+00  6.20908036443E+00  6.27148265953E+00
  6.33451210812E+00  6.39817501321E+00  6.46247774112E+00  6.52742672220E+00
  6.59302845139E+00  6.65928948891E+00  6.72621646094E+00  6.79381606022E+00
  6.86209504676E+00  6.93106024853E+00  7.00071856210E+00  7.07107695335E+00
  7.14214245820E+00  7.21392218324E+00  7.28642330652E+00  7.35965307819E+00
  7.43361882131E+00  7.50832793251E+00  7.58378788275E+00  7.66000621810E+00
  7.73699056046E+00  7.81474860832E+00  7.89328813756E+00  7.97261700218E+00
  8.05274313515E+00  8.13367454915E+00  8.21541933737E+00  8.29798567438E+00
  8.38138181687E+00  8.46561610453E+00  8.55069696085E+00  8.63663289399E+00
  8.72343249762E+00  8.81110445177E+00  8.89965752370E+00  8.98910056881E+00
  9.07944253146E+00  9.17069244593E+00  9.26285943729E+00  9.35595272231E+00
  9.44998161040E+00  9.54495550453E+00  9.64088390216E+00  9.73777639622E+00
  9.83564267603E+00  9.93449252830E+00  1.00343358381E+01  1.01351825899E+01
  1.02370428683E+01  1.03399268596E+01  1.04438448522E+01  1.05488072379E+01
  1.06548245132E+01  1.07619072798E+01  1.08700662461E+01  1.09793122281E+01
  1.10896561505E+01  1.12011090477E+01  1.13136820652E+01  1.14273864603E+01
  1.15422336035E+01  1.16582349798E+01  1.17754021892E+01  1.18937469487E+01
  1.20132810928E+01  1.21340165750E+01  1.22559654690E+01  1.23791399697E+01
  1.25035523948E+01  1.26292151855E+01  1.27561409082E+01  1.28843422557E+01
  1.30138320482E+01  1.31446232346E+01  1.32767288944E+01  1.34101622381E+01
  1.35449366092E+01  1.36810654853E+01  1.38185624793E+01  1.39574413411E+01
  1.40977159587E+01  1.42394003595E+01  1.43825087123E+01  1.45270553280E+01
  1.46730546613E+01  1.48205213123E+01  1.49694700277E+01  1.51199157027E+01
  1.52718733818E+01  1.54253582609E+01  1.55803856888E+01  1.57369711682E+01
  1.58951303578E+01  1.60548790738E+01  1.62162332910E+01  1.63792091450E+01
  1.65438229336E+01  1.67100911183E+01  1.68780303261E+01  1.70476573509E+01
  1.72189891557E+01  1.73920428737E+01  1.75668358105E+01  1.77433854455E+01
  1.79217094339E+01  1.81018256082E+01  1.82837519801E+01  1.84675067424E+01
  1.86531082708E+01  1.88405751255E+01  1.90299260535E+01  1.92211799899E+01
  1.94143560604E+01  1.96094735826E+01  1.98065520686E+01  2.00056112262E+01
  2.02066709617E+01  2.04097513810E+01  2.06148727926E+01  2.08220557086E+01
  2.10313208475E+01  2.12426891360E+01  2.14561817111E+01  2.16718199223E+01
  2.18896253335E+01  2.21096197255E+01  2.23318250980E+01  2.25562636715E+01
  2.27829578902E+01  2.30119304236E+01  2.32432041693E+01  2.34768022548E+01
  2.37127480401E+01  2.39510651199E+01  2.41917773262E+01  2.44349087304E+01
  2.46804836458E+01  2.49285266302E+01  2.51790624880E+01  2.54321162730E+01
  2.56877132908E+01  2.59458791014E+01  2.62066395215E+01  2.64700206274E+01
  2.67360487575E+01  2.70047505146E+01  2.72761527694E+01  2.75502826621E+01
  2.78271676061E+01  2.81068352900E+01  2.83893136809E+01  2.86746310268E+01