<PP_INFO>
Generated using "atomic" code by A. Dal Corso  (espresso distribution)     
Author: anonymous   Generation date: 26Sep2008                             
Ge                                                                         
    1        The Pseudo was generated with a Scalar-Relativistic Calculation
    0 1.8000000E+00    L component and cutoff radius for Local Potential
nl pn  l   occ               Rcut            Rcut US             E pseu
4P  2  1  2.00      2.10000000000      2.10000000000     -0.28629715224
3D  3  2 10.00      1.00000000000      1.00000000000     -2.15431050027
4S  1  0  2.00      1.80000000000      1.80000000000     -0.86222116463
</PP_INFO>


<PP_HEADER>
   0                   Version Number
  Ge                   Element
   NC                  Norm - Conserving pseudopotential
    F                  Nonlinear Core Correction
 SLA  PW   PBX  PBC    PBE  Exchange-Correlation functional
   14.00000000000      Z valence
 -183.15589153652      Total energy
      0.000      0.000 Suggested cutoff for wfc and rho
    2                  Max angular momentum component
 1207                  Number of points in mesh
    6    2             Number of Wavefunctions, Number of Projectors
 Wavefunctions         nl  l   occ
                       4S  0  2.00
                       5S  0  0.00
                       4P  1  2.00
                       5P  1  0.00
                       3D  2 10.00
                       4D  2  0.00
</PP_HEADER>


<PP_MESH>
  <PP_R>
  2.84963114236E-05  2.88547508959E-05  2.92176989818E-05  2.95852123925E-05
  2.99573485529E-05  3.03341656100E-05  3.07157224421E-05  3.11020786684E-05
  3.14932946578E-05  3.18894315385E-05  3.22905512077E-05  3.26967163413E-05
  3.31079904034E-05  3.35244376563E-05  3.39461231707E-05  3.43731128360E-05
  3.48054733702E-05  3.52432723303E-05  3.56865781234E-05  3.61354600170E-05
  3.65899881497E-05  3.70502335425E-05  3.75162681097E-05  3.79881646701E-05
  3.84659969585E-05  3.89498396373E-05  3.94397683076E-05  3.99358595221E-05
  4.04381907958E-05  4.09468406191E-05  4.14618884696E-05  4.19834148245E-05
  4.25115011734E-05  4.30462300308E-05  4.35876849492E-05  4.41359505322E-05
  4.46911124471E-05  4.52532574393E-05  4.58224733451E-05  4.63988491055E-05
  4.69824747805E-05  4.75734415628E-05  4.81718417922E-05  4.87777689698E-05
  4.93913177730E-05  5.00125840701E-05  5.06416649353E-05  5.12786586636E-05
  5.19236647867E-05  5.25767840880E-05  5.32381186188E-05  5.39077717140E-05
  5.45858480082E-05  5.52724534521E-05  5.59676953294E-05  5.66716822730E-05
  5.73845242822E-05  5.81063327400E-05  5.88372204306E-05  5.95773015566E-05
  6.03266917571E-05  6.10855081260E-05  6.18538692298E-05  6.26318951265E-05
  6.34197073842E-05  6.42174291003E-05  6.50251849203E-05  6.58431010577E-05
  6.66713053137E-05  6.75099270967E-05  6.83590974432E-05  6.92189490378E-05
  7.00896162339E-05  7.09712350752E-05  7.18639433164E-05  7.27678804449E-05
  7.36831877028E-05  7.46100081087E-05  7.55484864801E-05  7.64987694563E-05
  7.74610055208E-05  7.84353450251E-05  7.94219402115E-05  8.04209452377E-05
  8.14325162003E-05  8.24568111591E-05  8.34939901625E-05  8.45442152717E-05
  8.56076505865E-05  8.66844622709E-05  8.77748185789E-05  8.88788898809E-05
  8.99968486903E-05  9.11288696903E-05  9.22751297617E-05  9.34358080098E-05
  9.46110857930E-05  9.58011467508E-05  9.70061768328E-05  9.82263643272E-05
  9.94618998909E-05  1.00712976579E-04  1.01979789874E-04  1.03262537719E-04
  1.04561420546E-04  1.05876641307E-04  1.07208405509E-04  1.08556921243E-04
  1.09922399216E-04  1.11305052788E-04  1.12705098000E-04  1.14122753614E-04
  1.15558241140E-04  1.17011784876E-04  1.18483611942E-04  1.19973952313E-04
  1.21483038859E-04  1.23011107376E-04  1.24558396629E-04  1.26125148385E-04
  1.27711607452E-04  1.29318021718E-04  1.30944642187E-04  1.32591723023E-04
  1.34259521586E-04  1.35948298472E-04  1.37658317557E-04  1.39389846033E-04
  1.41143154457E-04  1.42918516785E-04  1.44716210423E-04  1.46536516263E-04
  1.48379718732E-04  1.50246105833E-04  1.52135969195E-04  1.54049604111E-04
  1.55987309591E-04  1.57949388406E-04  1.59936147134E-04  1.61947896210E-04
  1.63984949974E-04  1.66047626721E-04  1.68136248747E-04  1.70251142404E-04
  1.72392638149E-04  1.74561070594E-04  1.76756778561E-04  1.78980105135E-04
  1.81231397714E-04  1.83511008068E-04  1.85819292390E-04  1.88156611354E-04
  1.90523330172E-04  1.92919818648E-04  1.95346451238E-04  1.97803607109E-04
  2.00291670196E-04  2.02811029263E-04  2.05362077967E-04  2.07945214913E-04
  2.10560843721E-04  2.13209373091E-04  2.15891216858E-04  2.18606794067E-04
  2.21356529033E-04  2.24140851407E-04  2.26960196244E-04  2.29815004074E-04
  2.32705720966E-04  2.35632798601E-04  2.38596694339E-04  2.41597871297E-04
  2.44636798413E-04  2.47713950527E-04  2.50829808450E-04  2.53984859040E-04
  2.57179595282E-04  2.60414516358E-04  2.63690127733E-04  2.67006941226E-04
  2.70365475098E-04  2.73766254124E-04  2.77209809685E-04  2.80696679843E-04
  2.84227409428E-04  2.87802550124E-04  2.91422660554E-04  2.95088306368E-04
  2.98800060329E-04  3.02558502409E-04  3.06364219869E-04  3.10217807363E-04
  3.14119867020E-04  3.18071008545E-04  3.22071849313E-04  3.26123014462E-04
  3.30225136995E-04  3.34378857879E-04  3.38584826139E-04  3.42843698967E-04
  3.47156141820E-04  3.51522828527E-04  3.55944441391E-04  3.60421671298E-04
  3.64955217825E-04  3.69545789347E-04  3.74194103150E-04  3.78900885543E-04
  3.83666871971E-04  3.88492807128E-04  3.93379445076E-04  3.98327549363E-04
  4.03337893140E-04  4.08411259283E-04  4.13548440517E-04  4.18750239536E-04
  4.24017469131E-04  4.29350952319E-04  4.34751522467E-04  4.40220023424E-04
  4.45757309656E-04  4.51364246375E-04  4.57041709675E-04  4.62790586672E-04
  4.68611775640E-04  4.74506186151E-04  4.80474739219E-04  4.86518367443E-04
  4.92638015152E-04  4.98834638552E-04  5.05109205880E-04  5.11462697549E-04
  5.17896106305E-04  5.24410437381E-04  5.31006708655E-04  5.37685950808E-04
  5.44449207484E-04  5.51297535457E-04  5.58232004791E-04  5.65253699012E-04
  5.72363715273E-04  5.79563164529E-04  5.86853171709E-04  5.94234875891E-04
  6.01709430481E-04  6.09278003394E-04  6.16941777234E-04  6.24701949482E-04
  6.32559732681E-04  6.40516354625E-04  6.48573058553E-04  6.56731103341E-04
  6.64991763699E-04  6.73356330374E-04  6.81826110345E-04  6.90402427033E-04
  6.99086620505E-04  7.07880047684E-04  7.16784082560E-04  7.25800116408E-04
  7.34929558000E-04  7.44173833831E-04  7.53534388338E-04  7.63012684126E-04
  7.72610202198E-04  7.82328442186E-04  7.92168922585E-04  8.02133180990E-04
  8.12222774336E-04  8.22439279143E-04  8.32784291761E-04  8.43259428619E-04
  8.53866326478E-04  8.64606642688E-04  8.75482055444E-04  8.86494264054E-04
  8.97644989195E-04  9.08935973192E-04  9.20368980285E-04  9.31945796903E-04
  9.43668231947E-04  9.55538117073E-04  9.67557306974E-04  9.79727679673E-04
  9.92051136815E-04  1.00452960396E-03  1.01716503091E-03  1.02995939196E-03
  1.04291468626E-03  1.05603293810E-03  1.06931619724E-03  1.08276653921E-03
  1.09638606565E-03  1.11017690465E-03  1.12414121104E-03  1.13828116679E-03
  1.15259898129E-03  1.16709689172E-03  1.18177716342E-03  1.19664209020E-03
  1.21169399474E-03  1.22693522894E-03  1.24236817426E-03  1.25799524213E-03
  1.27381887432E-03  1.28984154331E-03  1.30606575265E-03  1.32249403743E-03
  1.33912896460E-03  1.35597313338E-03  1.37302917573E-03  1.39029975668E-03
  1.40778757480E-03  1.42549536259E-03  1.44342588693E-03  1.46158194950E-03
  1.47996638722E-03  1.49858207271E-03  1.51743191469E-03  1.53651885849E-03
  1.55584588650E-03  1.57541601858E-03  1.59523231263E-03  1.61529786497E-03
  1.63561581089E-03  1.65618932510E-03  1.67702162227E-03  1.69811595748E-03
  1.71947562676E-03  1.74110396761E-03  1.76300435949E-03  1.78518022439E-03
  1.80763502734E-03  1.83037227693E-03  1.85339552592E-03  1.87670837173E-03
  1.90031445704E-03  1.92421747035E-03  1.94842114655E-03  1.97292926752E-03
  1.99774566271E-03  2.02287420972E-03  2.04831883494E-03  2.07408351414E-03
  2.10017227312E-03  2.12658918828E-03  2.15333838733E-03  2.18042404989E-03
  2.20785040814E-03  2.23562174751E-03  2.26374240732E-03  2.29221678149E-03
  2.32104931920E-03  2.35024452558E-03  2.37980696246E-03  2.40974124901E-03
  2.44005206254E-03  2.47074413916E-03  2.50182227459E-03  2.53329132483E-03
  2.56515620700E-03  2.59742190004E-03  2.63009344554E-03  2.66317594849E-03
  2.69667457811E-03  2.73059456861E-03  2.76494122007E-03  2.79971989921E-03
  2.83493604029E-03  2.87059514590E-03  2.90670278783E-03  2.94326460799E-03
  2.98028631924E-03  3.01777370628E-03  3.05573262660E-03  3.09416901137E-03
  3.13308886634E-03  3.17249827282E-03  3.21240338860E-03  3.25281044896E-03
  3.29372576756E-03  3.33515573751E-03  3.37710683234E-03  3.41958560698E-03
  3.46259869882E-03  3.50615282876E-03  3.55025480221E-03  3.59491151020E-03
  3.64012993042E-03  3.68591712835E-03  3.73228025833E-03  3.77922656470E-03
  3.82676338291E-03  3.87489814068E-03  3.92363835916E-03  3.97299165413E-03
  4.02296573712E-03  4.07356841669E-03  4.12480759962E-03  4.17669129213E-03
  4.22922760114E-03  4.28242473558E-03  4.33629100759E-03  4.39083483390E-03
  4.44606473708E-03  4.50198934692E-03  4.55861740176E-03  4.61595774984E-03
  4.67401935071E-03  4.73281127661E-03  4.79234271390E-03  4.85262296450E-03
  4.91366144730E-03  4.97546769970E-03  5.03805137906E-03  5.10142226419E-03
  5.16559025692E-03  5.23056538365E-03  5.29635779686E-03  5.36297777675E-03
  5.43043573283E-03  5.49874220554E-03  5.56790786790E-03  5.63794352720E-03
  5.70886012665E-03  5.78066874710E-03  5.85338060881E-03  5.92700707315E-03
  6.00155964440E-03  6.07704997155E-03  6.15348985013E-03  6.23089122402E-03
  6.30926618733E-03  6.38862698633E-03  6.46898602129E-03  6.55035584847E-03
  6.63274918209E-03  6.71617889625E-03  6.80065802704E-03  6.88619977448E-03
  6.97281750464E-03  7.06052475172E-03  7.14933522016E-03  7.23926278678E-03
  7.33032150293E-03  7.42252559673E-03  7.51588947526E-03  7.61042772681E-03
  7.70615512318E-03  7.80308662196E-03  7.90123736890E-03  8.00062270025E-03
  8.10125814518E-03  8.20315942818E-03  8.30634247153E-03  8.41082339779E-03
  8.51661853231E-03  8.62374440581E-03  8.73221775692E-03  8.84205553482E-03
  8.95327490188E-03  9.06589323636E-03  9.17992813511E-03  9.29539741630E-03
  9.41231912226E-03  9.53071152222E-03  9.65059311525E-03  9.77198263309E-03
  9.89489904310E-03  1.00193615512E-02  1.01453896049E-02  1.02730028965E-02
  1.04022213656E-02  1.05330652029E-02  1.06655548532E-02  1.07997110180E-02
  1.09355546597E-02  1.10731070041E-02  1.12123895439E-02  1.13534240425E-02
  1.14962325366E-02  1.16408373405E-02  1.17872610488E-02  1.19355265407E-02
  1.20856569830E-02  1.22376758336E-02  1.23916068461E-02  1.25474740723E-02
  1.27053018669E-02  1.28651148907E-02  1.30269381150E-02  1.31907968248E-02
  1.33567166234E-02  1.35247234362E-02  1.36948435145E-02  1.38671034400E-02
  1.40415301287E-02  1.42181508349E-02  1.43969931562E-02  1.45780850370E-02
  1.47614547732E-02  1.49471310167E-02  1.51351427799E-02  1.53255194399E-02
  1.55182907435E-02  1.57134868116E-02  1.59111381440E-02  1.61112756241E-02
  1.63139305238E-02  1.65191345083E-02  1.67269196412E-02  1.69373183893E-02
  1.71503636279E-02  1.73660886457E-02  1.75845271502E-02  1.78057132728E-02
  1.80296815744E-02  1.82564670504E-02  1.84861051365E-02  1.87186317141E-02
  1.89540831160E-02  1.91924961320E-02  1.94339080145E-02  1.96783564847E-02
  1.99258797382E-02  2.01765164509E-02  2.04303057853E-02  2.06872873966E-02
  2.09475014386E-02  2.12109885704E-02  2.14777899622E-02  2.17479473025E-02
  2.20215028037E-02  2.22984992096E-02  2.25789798013E-02  2.28629884046E-02
  2.31505693963E-02  2.34417677116E-02  2.37366288508E-02  2.40351988865E-02
  2.43375244710E-02  2.46436528432E-02  2.49536318362E-02  2.52675098850E-02
  2.55853360337E-02  2.59071599431E-02  2.62330318990E-02  2.65630028195E-02
  2.68971242633E-02  2.72354484374E-02  2.75780282058E-02  2.79249170971E-02
  2.82761693136E-02  2.86318397391E-02  2.89919839478E-02  2.93566582129E-02
  2.97259195156E-02  3.00998255538E-02  3.04784347509E-02  3.08618062654E-02
  3.12500000000E-02  3.16430766106E-02  3.20410975164E-02  3.24441249088E-02
  3.28522217618E-02  3.32654518412E-02  3.36838797151E-02  3.41075707638E-02
  3.45365911899E-02  3.49710080285E-02  3.54108891583E-02  3.58563033116E-02
  3.63073200853E-02  3.67640099515E-02  3.72264442691E-02  3.76946952944E-02
  3.81688361925E-02  3.86489410489E-02  3.91350848810E-02  3.96273436497E-02
  4.01257942715E-02  4.06305146303E-02  4.11415835896E-02  4.16590810051E-02
  4.21830877368E-02  4.27136856617E-02  4.32509576869E-02  4.37949877622E-02
  4.43458608935E-02  4.49036631558E-02  4.54684817068E-02  4.60404048006E-02
  4.66195218013E-02  4.72059231971E-02  4.77997006145E-02  4.84009468323E-02
  4.90097557966E-02  4.96262226349E-02  5.02504436714E-02  5.08825164420E-02
  5.15225397094E-02  5.21706134784E-02  5.28268390118E-02  5.34913188464E-02
  5.41641568084E-02  5.48454580300E-02  5.55353289661E-02  5.62338774103E-02
  5.69412125122E-02  5.76574447945E-02  5.83826861698E-02  5.91170499586E-02
  5.98606509067E-02  6.06136052033E-02  6.13760304991E-02  6.21480459244E-02
  6.29297721085E-02  6.37213311974E-02  6.45228468740E-02  6.53344443766E-02
  6.61562505191E-02  6.69883937104E-02  6.78310039745E-02  6.86842129709E-02
  6.95481540154E-02  7.04229621004E-02  7.13087739165E-02  7.22057278737E-02
  7.31139641227E-02  7.40336245773E-02  7.49648529365E-02  7.59077947064E-02
  7.68625972237E-02  7.78294096781E-02  7.88083831362E-02  7.97996705645E-02
  8.08034268536E-02  8.18198088426E-02  8.28489753432E-02  8.38910871648E-02
  8.49463071393E-02  8.60148001473E-02  8.70967331427E-02  8.81922751799E-02
  8.93015974395E-02  9.04248732554E-02  9.15622781417E-02  9.27139898202E-02
  9.38801882483E-02  9.50610556468E-02  9.62567765287E-02  9.74675377277E-02
  9.86935284278E-02  9.99349401925E-02  1.01191966995E-01  1.02464805248E-01
  1.03753653836E-01  1.05058714142E-01  1.06380190087E-01  1.07718288153E-01
  1.09073217421E-01  1.10445189600E-01  1.11834419066E-01  1.13241122886E-01
  1.14665520863E-01  1.16107835561E-01  1.17568292344E-01  1.19047119412E-01
  1.20544547834E-01  1.22060811588E-01  1.23596147591E-01  1.25150795744E-01
  1.26724998964E-01  1.28319003222E-01  1.29933057586E-01  1.31567414254E-01
  1.33222328599E-01  1.34898059203E-01  1.36594867904E-01  1.38313019831E-01
  1.40052783448E-01  1.41814430598E-01  1.43598236541E-01  1.45404480000E-01
  1.47233443206E-01  1.49085411936E-01  1.50960675566E-01  1.52859527108E-01
  1.54782263262E-01  1.56729184460E-01  1.58700594912E-01  1.60696802654E-01
  1.62718119599E-01  1.64764861582E-01  1.66837348409E-01  1.68935903911E-01
  1.71060855991E-01  1.73212536679E-01  1.75391282178E-01  1.77597432921E-01
  1.79831333625E-01  1.82093333341E-01  1.84383785510E-01  1.86703048021E-01
  1.89051483263E-01  1.91429458184E-01  1.93837344347E-01  1.96275517990E-01
  1.98744360081E-01  2.01244256384E-01  2.03775597510E-01  2.06338778989E-01
  2.08934201321E-01  2.11562270048E-01  2.14223395809E-01  2.16917994412E-01
  2.19646486893E-01  2.22409299585E-01  2.25206864182E-01  2.28039617810E-01
  2.30908003092E-01  2.33812468219E-01  2.36753467020E-01  2.39731459032E-01
  2.42746909572E-01  2.45800289811E-01  2.48892076845E-01  2.52022753772E-01
  2.55192809768E-01  2.58402740159E-01  2.61653046504E-01  2.64944236670E-01
  2.68276824912E-01  2.71651331953E-01  2.75068285068E-01  2.78528218162E-01
  2.82031671857E-01  2.85579193575E-01  2.89171337622E-01  2.92808665279E-01
  2.96491744886E-01  3.00221151931E-01  3.03997469142E-01  3.07821286577E-01
  3.11693201713E-01  3.15613819546E-01  3.19583752681E-01  3.23603621427E-01
  3.27674053898E-01  3.31795686106E-01  3.35969162065E-01  3.40195133889E-01
  3.44474261895E-01  3.48807214705E-01  3.53194669352E-01  3.57637311385E-01
  3.62135834976E-01  3.66690943027E-01  3.71303347284E-01  3.75973768445E-01
  3.80702936272E-01  3.85491589707E-01  3.90340476988E-01  3.95250355762E-01
  4.00221993208E-01  4.05256166155E-01  4.10353661203E-01  4.15515274845E-01
  4.20741813594E-01  4.26034094107E-01  4.31392943315E-01  4.36819198547E-01
  4.42313707668E-01  4.47877329206E-01  4.53510932487E-01  4.59215397775E-01
  4.64991616402E-01  4.70840490916E-01  4.76762935214E-01  4.82759874691E-01
  4.88832246381E-01  4.94980999103E-01  5.01207093614E-01  5.07511502753E-01
  5.13895211597E-01  5.20359217613E-01  5.26904530815E-01  5.33532173923E-01
  5.40243182518E-01  5.47038605209E-01  5.53919503796E-01  5.60886953432E-01
  5.67942042795E-01  5.75085874258E-01  5.82319564059E-01  5.89644242477E-01
  5.97061054007E-01  6.04571157542E-01  6.12175726550E-01  6.19875949261E-01
  6.27673028850E-01  6.35568183626E-01  6.43562647225E-01  6.51657668796E-01
  6.59854513204E-01  6.68154461223E-01  6.76558809735E-01  6.85068871937E-01
  6.93685977545E-01  7.02411472998E-01  7.11246721673E-01  7.20193104095E-01
  7.29252018154E-01  7.38424879326E-01  7.47713120887E-01  7.57118194144E-01
  7.66641568660E-01  7.76284732480E-01  7.86049192369E-01  7.95936474044E-01
  8.05948122412E-01  8.16085701814E-01  8.26350796268E-01  8.36745009714E-01
  8.47269966271E-01  8.57927310483E-01  8.68718707583E-01  8.79645843749E-01
  8.90710426368E-01  9.01914184303E-01  9.13258868164E-01  9.24746250581E-01
  9.36378126481E-01  9.48156313369E-01  9.60082651609E-01  9.72159004718E-01
  9.84387259648E-01  9.96769327091E-01  1.00930714177E+00  1.02200266274E+00
  1.03485787371E+00  1.04787478333E+00  1.06105542551E+00  1.07440185976E+00
  1.08791617149E+00  1.10160047233E+00  1.11545690049E+00  1.12948762106E+00
  1.14369482636E+00  1.15808073632E+00  1.17264759874E+00  1.18739768973E+00
  1.20233331403E+00  1.21745680536E+00  1.23277052679E+00  1.24827687112E+00
  1.26397826125E+00  1.27987715056E+00  1.29597602328E+00  1.31227739488E+00
  1.32878381250E+00  1.34549785530E+00  1.36242213487E+00  1.37955929567E+00
  1.39691201542E+00  1.41448300551E+00  1.43227501145E+00  1.45029081327E+00
  1.46853322599E+00  1.48700510001E+00  1.50570932160E+00  1.52464881333E+00
  1.54382653455E+00  1.56324548180E+00  1.58290868934E+00  1.60281922958E+00
  1.62298021359E+00  1.64339479156E+00  1.66406615330E+00  1.68499752877E+00
  1.70619218854E+00  1.72765344430E+00  1.74938464943E+00  1.77138919947E+00
  1.79367053267E+00  1.81623213055E+00  1.83907751839E+00  1.86221026583E+00
  1.88563398742E+00  1.90935234315E+00  1.93336903907E+00  1.95768782784E+00
  1.98231250932E+00  2.00724693115E+00  2.03249498941E+00  2.05806062914E+00
  2.08394784503E+00  2.11016068201E+00  2.13670323589E+00  2.16357965400E+00
  2.19079413583E+00  2.21835093371E+00  2.24625435343E+00  2.27450875496E+00
  2.30311855311E+00  2.33208821823E+00  2.36142227687E+00  2.39112531254E+00
  2.42120196641E+00  2.45165693802E+00  2.48249498601E+00  2.51372092889E+00
  2.54533964578E+00  2.57735607717E+00  2.60977522569E+00  2.64260215690E+00
  2.67584200007E+00  2.70949994900E+00  2.74358126280E+00  2.77809126677E+00
  2.81303535314E+00  2.84841898201E+00  2.88424768215E+00  2.92052705185E+00
  2.95726275984E+00  2.99446054616E+00  3.03212622303E+00  3.07026567579E+00
  3.10888486381E+00  3.14798982142E+00  3.18758665883E+00  3.22768156315E+00
  3.26828079928E+00  3.30939071094E+00  3.35101772163E+00  3.39316833565E+00
  3.43584913913E+00  3.47906680103E+00  3.52282807419E+00  3.56713979641E+00
  3.61200889147E+00  3.65744237028E+00  3.70344733190E+00  3.75003096470E+00
  3.79720054746E+00  3.84496345054E+00  3.89332713697E+00  3.94229916370E+00
  3.99188718269E+00  4.04209894217E+00  4.09294228784E+00  4.14442516406E+00
  4.19655561515E+00  4.24934178660E+00  4.30279192634E+00  4.35691438607E+00
  4.41171762255E+00  4.46721019887E+00  4.52340078588E+00  4.58029816346E+00
  4.63791122196E+00  4.69624896351E+00  4.75532050352E+00  4.81513507203E+00
  4.87570201520E+00  4.93703079672E+00  4.99913099936E+00  5.06201232638E+00
  5.12568460312E+00  5.19015777851E+00  5.25544192662E+00  5.32154724822E+00
  5.38848407240E+00  5.45626285818E+00  5.52489419614E+00  5.59438881005E+00
  5.66475755860E+00  5.73601143704E+00  5.80816157894E+00  5.88121925790E+00
  5.95519588933E+00  6.03010303224E+00  6.10595239102E+00  6.18275581728E+00
  6.26052531171E+00  6.33927302596E+00  6.41901126452E+00  6.49975248665E+00
  6.58150930833E+00  6.66429450423E+00  6.74812100971E+00  6.83300192282E+00
  6.91895050638E+00  7.00598019004E+00  7.09410457235E+00  7.18333742294E+00
  7.27369268461E+00  7.36518447557E+00  7.45782709158E+00  7.55163500825E+00
  7.64662288326E+00  7.74280555864E+00  7.84019806315E+00  7.93881561456E+00
  8.03867362206E+00  8.13978768866E+00  8.24217361365E+00  8.34584739504E+00
  8.45082523207E+00  8.55712352773E+00  8.66475889135E+00  8.77374814117E+00
  8.88410830700E+00  8.99585663282E+00  9.10901057954E+00  9.22358782770E+00
  9.33960628022E+00  9.45708406522E+00  9.57603953886E+00  9.69649128815E+00
  9.81845813393E+00  9.94195913377E+00  1.00670135850E+01  1.01936410275E+01
  1.03218612472E+01  1.04516942787E+01  1.05831604087E+01  1.07162801790E+01
  1.08510743900E+01  1.09875641033E+01  1.11257706460E+01  1.12657156129E+01
  1.14074208708E+01  1.15509085614E+01  1.16962011050E+01  1.18433212038E+01
  1.19922918457E+01  1.21431363075E+01  1.22958781591E+01  1.24505412667E+01
  1.26071497966E+01  1.27657282194E+01  1.29263013132E+01  1.30888941679E+01
  1.32535321889E+01  1.34202411013E+01  1.35890469536E+01  1.37599761222E+01
  1.39330553151E+01  1.41083115762E+01  1.42857722897E+01  1.44654651841E+01
  1.46474183370E+01  1.48316601787E+01  1.50182194975E+01  1.52071254437E+01
  1.53984075342E+01  1.55920956571E+01  1.57882200768E+01  1.59868114379E+01
  1.61879007709E+01  1.63915194963E+01  1.65976994299E+01  1.68064727879E+01
  1.70178721914E+01  1.72319306721E+01  1.74486816770E+01  1.76681590740E+01
  1.78903971567E+01  1.81154306504E+01  1.83432947169E+01  1.85740249606E+01
  1.88076574335E+01  1.90442286411E+01  1.92837755482E+01  1.95263355845E+01
  1.97719466504E+01  2.00206471232E+01  2.02724758628E+01  2.05274722181E+01
  2.07856760326E+01  2.10471276514E+01  2.13118679266E+01  2.15799382245E+01
  2.18513804317E+01  2.21262369616E+01  2.24045507610E+01  2.26863653170E+01
  2.29717246638E+01  2.32606733893E+01  2.35532566423E+01  2.38495201396E+01
  2.41495101730E+01  2.44532736164E+01  2.47608579336E+01  2.50723111852E+01
  2.53876820365E+01  2.57070197647E+01  2.60303742671E+01  2.63577960684E+01
  2.66893363289E+01  2.70250468526E+01  2.73649800948E+01  2.77091891709E+01
  2.80577278641E+01  2.84106506344E+01  2.87680126266E+01  2.91298696793E+01
  2.94962783335E+01  2.98672958411E+01  3.02429801745E+01  3.06233900351E+01
  3.10085848627E+01  3.13986248447E+01  3.17935709257E+01  3.21934848169E+01
  3.25984290056E+01  3.30084667652E+01  3.34236621648E+01  3.38440800797E+01
  3.42697862009E+01  3.47008470459E+01  3.51373299689E+01  3.55793031712E+01
  3.60268357120E+01  3.64799975191E+01  3.69388594001E+01  3.74034930531E+01
  3.78739710779E+01  3.83503669877E+01  3.88327552205E+01  3.93212111502E+01
  3.98158110992E+01  4.03166323496E+01  4.08237531559E+01  4.13372527567E+01
  4.18572113873E+01  4.23837102924E+01  4.29168317384E+01  4.34566590267E+01
  4.40032765064E+01  4.45567695876E+01  4.51172247546E+01  4.56847295798E+01
  4.62593727370E+01  4.68412440153E+01  4.74304343332E+01  4.80270357531E+01
  4.86311414949E+01  4.92428459516E+01  4.98622447031E+01  5.04894345318E+01
  5.11245134374E+01  5.17675806522E+01  5.24187366568E+01  5.30780831957E+01
  5.37457232930E+01  5.44217612690E+01  5.51063027558E+01  5.57994547146E+01
  5.65013254518E+01  5.72120246359E+01  5.79316633154E+01  5.86603539350E+01
  5.93982103544E+01  6.01453478649E+01  6.09018832084E+01  6.16679345951E+01
  6.24436217220E+01  6.32290657919E+01  6.40243895319E+01  6.48297172130E+01
  6.56451746694E+01  6.64708893178E+01  6.73069901780E+01  6.81536078923E+01
  6.90108747465E+01  6.98789246903E+01  7.07578933582E+01  7.16479180909E+01
  7.25491379566E+01  7.34616937727E+01  7.43857281279E+01  7.53213854045E+01
  7.62688118008E+01  7.72281553541E+01  7.81995659638E+01  7.91831954147E+01
  8.01791974011E+01  8.11877275502E+01  8.22089434468E+01  8.32430046582E+01
  8.42900727584E+01  8.53503113539E+01  8.64238861093E+01  8.75109647727E+01
  8.86117172023E+01  8.97263153931E+01  9.08549335032E+01  9.19977478815E+01
  9.31549370951E+01  9.43266819571E+01  9.55131655551E+01  9.67145732795E+01
  9.79310928528E+01  9.91629143585E+01  1.00410230271E+02
  </PP_R>
  <PP_RAB>
  3.56203892795E-07  3.60684386199E-07  3.65221237272E-07  3.69815154907E-07
  3.74466856912E-07  3.79177070125E-07  3.83946530527E-07  3.88775983355E-07
  3.93666183222E-07  3.98617894231E-07  4.03631890097E-07  4.08708954267E-07
  4.13849880042E-07  4.19055470703E-07  4.24326539634E-07  4.29663910451E-07
  4.35068417127E-07  4.40540904129E-07  4.46082226543E-07  4.51693250213E-07
  4.57374851872E-07  4.63127919282E-07  4.68953351372E-07  4.74852058377E-07
  4.80824961982E-07  4.86872995466E-07  4.92997103846E-07  4.99198244026E-07
  5.05477384948E-07  5.11835507739E-07  5.18273605870E-07  5.24792685306E-07
  5.31393764667E-07  5.38077875385E-07  5.44846061866E-07  5.51699381652E-07
  5.58638905589E-07  5.65665717992E-07  5.72780916814E-07  5.79985613819E-07
  5.87280934757E-07  5.94668019535E-07  6.02148022402E-07  6.09722112122E-07
  6.17391472163E-07  6.25157300877E-07  6.33020811691E-07  6.40983233295E-07
  6.49045809834E-07  6.57209801100E-07  6.65476482735E-07  6.73847146425E-07
  6.82323100102E-07  6.90905668152E-07  6.99596191618E-07  7.08396028412E-07
  7.17306553527E-07  7.26329159250E-07  7.35465255382E-07  7.44716269457E-07
  7.54083646964E-07  7.63568851575E-07  7.73173365372E-07  7.82898689081E-07
  7.92746342303E-07  8.02717863754E-07  8.12814811504E-07  8.23038763222E-07
  8.33391316421E-07  8.43874088709E-07  8.54488718040E-07  8.65236862972E-07
  8.76120202924E-07  8.87140438440E-07  8.98299291455E-07  9.09598505562E-07
  9.21039846285E-07  9.32625101359E-07  9.44356081002E-07  9.56234618204E-07
  9.68262569010E-07  9.80441812813E-07  9.92774252644E-07  1.00526181547E-06
  1.01790645250E-06  1.03071013949E-06  1.04367487703E-06  1.05680269090E-06
  1.07009563233E-06  1.08355577839E-06  1.09718523224E-06  1.11098612351E-06
  1.12496060863E-06  1.13911087113E-06  1.15343912202E-06  1.16794760012E-06
  1.18263857241E-06  1.19751433439E-06  1.21257721041E-06  1.22782955409E-06
  1.24327374864E-06  1.25891220724E-06  1.27474737343E-06  1.29078172149E-06
  1.30701775682E-06  1.32345801634E-06  1.34010506887E-06  1.35696151553E-06
  1.37402999020E-06  1.39131315985E-06  1.40881372501E-06  1.42653442018E-06
  1.44447801425E-06  1.46264731095E-06  1.48104514928E-06  1.49967440392E-06
  1.51853798573E-06  1.53763884220E-06  1.55697995786E-06  1.57656435481E-06
  1.59639509315E-06  1.61647527147E-06  1.63680802734E-06  1.65739653779E-06
  1.67824401983E-06  1.69935373090E-06  1.72072896946E-06  1.74237307541E-06
  1.76428943071E-06  1.78648145982E-06  1.80895263029E-06  1.83170645329E-06
  1.85474648415E-06  1.87807632292E-06  1.90169961493E-06  1.92562005138E-06
  1.94984136989E-06  1.97436735507E-06  1.99920183917E-06  2.02434870262E-06
  2.04981187468E-06  2.07559533401E-06  2.10170310934E-06  2.12813928005E-06
  2.15490797686E-06  2.18201338242E-06  2.20945973201E-06  2.23725131418E-06
  2.26539247142E-06  2.29388760085E-06  2.32274115487E-06  2.35195764193E-06
  2.38154162715E-06  2.41149773310E-06  2.44183064048E-06  2.47254508886E-06
  2.50364587744E-06  2.53513786579E-06  2.56702597458E-06  2.59931518641E-06
  2.63201054652E-06  2.66511716363E-06  2.69864021072E-06  2.73258492584E-06
  2.76695661291E-06  2.80176064258E-06  2.83700245305E-06  2.87268755093E-06
  2.90882151208E-06  2.94540998251E-06  2.98245867924E-06  3.01997339121E-06
  3.05795998017E-06  3.09642438159E-06  3.13537260562E-06  3.17481073800E-06
  3.21474494102E-06  3.25518145448E-06  3.29612659666E-06  3.33758676533E-06
  3.37956843872E-06  3.42207817655E-06  3.46512262107E-06  3.50870849804E-06
  3.55284261785E-06  3.59753187655E-06  3.64278325693E-06  3.68860382960E-06
  3.73500075412E-06  3.78198128011E-06  3.82955274837E-06  3.87772259204E-06
  3.92649833775E-06  3.97588760681E-06  4.02589811641E-06  4.07653768077E-06
  4.12781421244E-06  4.17973572348E-06  4.23231032673E-06  4.28554623708E-06
  4.33945177275E-06  4.39403535659E-06  4.44930551739E-06  4.50527089123E-06
  4.56194022281E-06  4.61932236683E-06  4.67742628938E-06  4.73626106929E-06
  4.79583589964E-06  4.85616008910E-06  4.91724306345E-06  4.97909436704E-06
  5.04172366425E-06  5.10514074104E-06  5.16935550646E-06  5.23437799420E-06
  5.30021836414E-06  5.36688690399E-06  5.43439403084E-06  5.50275029280E-06
  5.57196637070E-06  5.64205307968E-06  5.71302137094E-06  5.78488233340E-06
  5.85764719550E-06  5.93132732689E-06  6.00593424024E-06  6.08147959304E-06
  6.15797518940E-06  6.23543298190E-06  6.31386507350E-06  6.39328371936E-06
  6.47370132881E-06  6.55513046727E-06  6.63758385819E-06  6.72107438510E-06
  6.80561509355E-06  6.89121919321E-06  6.97790005989E-06  7.06567123765E-06
  7.15454644091E-06  7.24453955661E-06  7.33566464636E-06  7.42793594863E-06
  7.52136788101E-06  7.61597504242E-06  7.71177221543E-06  7.80877436853E-06
  7.90699665852E-06  8.00645443282E-06  8.10716323191E-06  8.20913879176E-06
  8.31239704624E-06  8.41695412967E-06  8.52282637931E-06  8.63003033792E-06
  8.73858275631E-06  8.84850059605E-06  8.95980103200E-06  9.07250145510E-06
  9.18661947500E-06  9.30217292289E-06  9.41917985423E-06  9.53765855157E-06
  9.65762752748E-06  9.77910552733E-06  9.90211153231E-06  1.00266647624E-05