<PP_INFO>
Generated using Fritz-Haber code                                                
Author: unknown    Generation date: as well                                     
Info: automatically converted from FHI format                                   
    1        The Pseudo was generated with a Scalar-Relativistic Calculation
nl pn  l   occ               Rcut            Rcut US             E pseu
4s  0  0  2.00      0.00000000000      0.00000000000      0.00000000000
4p  0  1  5.00      0.00000000000      0.00000000000      0.00000000000
4d  0  2  0.00      0.00000000000      0.00000000000      0.00000000000
</PP_INFO>


<PP_HEADER>
   0                   Version Number
  Kr                   Element
   NC                  Norm - Conserving pseudopotential
    F                  Nonlinear Core Correction
SLA  PW   PBE  PBE     PBE  Exchange-Correlation functional
    8.00000000000      Z valence
    0.00000000000      Total energy
  0.0000000  0.0000000 Suggested cutoff for wfc and rho
    1                  Max angular momentum component
  535                  Number of points in mesh
    3    2             Number of Wavefunctions, Number of Projectors
 Wavefunctions         nl  l   occ
                       4s  0  2.00
                       4p  1  5.00
                       4d  2  0.00
</PP_HEADER>


<PP_MESH>
  <PP_R>
  1.73611111111E-04  1.77899305556E-04  1.82293418403E-04  1.86796065837E-04
  1.91409928664E-04  1.96137753902E-04  2.00982356423E-04  2.05946620627E-04
  2.11033502156E-04  2.16246029659E-04  2.21587306592E-04  2.27060513065E-04
  2.32668907737E-04  2.38415829758E-04  2.44304700753E-04  2.50339026862E-04
  2.56522400826E-04  2.62858504126E-04  2.69351109178E-04  2.76004081575E-04
  2.82821382389E-04  2.89807070534E-04  2.96965305177E-04  3.04300348215E-04
  3.11816566815E-04  3.19518436016E-04  3.27410541385E-04  3.35497581758E-04
  3.43784372027E-04  3.52275846016E-04  3.60977059413E-04  3.69893192780E-04
  3.79029554642E-04  3.88391584642E-04  3.97984856782E-04  4.07815082745E-04
  4.17888115288E-04  4.28209951736E-04  4.38786737544E-04  4.49624769961E-04
  4.60730501779E-04  4.72110545173E-04  4.83771675639E-04  4.95720836027E-04
  5.07965140677E-04  5.20511879652E-04  5.33368523079E-04  5.46542725599E-04
  5.60042330922E-04  5.73875376496E-04  5.88050098295E-04  6.02574935723E-04
  6.17458536635E-04  6.32709762490E-04  6.48337693624E-04  6.64351634656E-04
  6.80761120032E-04  6.97575919697E-04  7.14806044913E-04  7.32461754223E-04
  7.50553559552E-04  7.69092232473E-04  7.88088810615E-04  8.07554604237E-04
  8.27501202962E-04  8.47940482675E-04  8.68884612597E-04  8.90346062528E-04
  9.12337610273E-04  9.34872349247E-04  9.57963696273E-04  9.81625399571E-04
  1.00587154694E-03  1.03071657415E-03  1.05617527353E-03  1.08226280279E-03
  1.10899469402E-03  1.13638686296E-03  1.16445561847E-03  1.19321767225E-03
  1.22269014875E-03  1.25289059543E-03  1.28383699314E-03  1.31554776687E-03
  1.34804179671E-03  1.38133842909E-03  1.41545748828E-03  1.45041928825E-03
  1.48624464467E-03  1.52295488739E-03  1.56057187311E-03  1.59911799837E-03
  1.63861621293E-03  1.67909003339E-03  1.72056355722E-03  1.76306147708E-03
  1.80660909556E-03  1.85123234022E-03  1.89695777903E-03  1.94381263617E-03
  1.99182480828E-03  2.04102288105E-03  2.09143614621E-03  2.14309461902E-03
  2.19602905611E-03  2.25027097380E-03  2.30585266685E-03  2.36280722772E-03
  2.42116856625E-03  2.48097142983E-03  2.54225142415E-03  2.60504503432E-03
  2.66938964667E-03  2.73532357095E-03  2.80288606315E-03  2.87211734891E-03
  2.94305864743E-03  3.01575219602E-03  3.09024127526E-03  3.16657023476E-03
  3.24478451956E-03  3.32493069719E-03  3.40705648541E-03  3.49121078060E-03
  3.57744368688E-03  3.66580654595E-03  3.75635196763E-03  3.84913386123E-03
  3.94420746760E-03  4.04162939205E-03  4.14145763804E-03  4.24375164170E-03
  4.34857230725E-03  4.45598204324E-03  4.56604479970E-03  4.67882610626E-03
  4.79439311108E-03  4.91281462092E-03  5.03416114206E-03  5.15850492227E-03
  5.28591999385E-03  5.41648221770E-03  5.55026932848E-03  5.68736098089E-03
  5.82783879712E-03  5.97178641541E-03  6.11928953987E-03  6.27043599150E-03
  6.42531576049E-03  6.58402105978E-03  6.74664637995E-03  6.91328854554E-03
  7.08404677261E-03  7.25902272789E-03  7.43832058927E-03  7.62204710783E-03
  7.81031167139E-03  8.00322636968E-03  8.20090606101E-03  8.40346844071E-03
  8.61103411120E-03  8.82372665375E-03  9.04167270209E-03  9.26500201783E-03
  9.49384756768E-03  9.72834560260E-03  9.96863573898E-03  1.02148610417E-02
  1.04671681095E-02  1.07257071618E-02  1.09906321287E-02  1.12621007422E-02
  1.15402746306E-02  1.18253194140E-02  1.21174048035E-02  1.24167047021E-02
  1.27233973083E-02  1.30376652218E-02  1.33596955528E-02  1.36896800329E-02
  1.40278151297E-02  1.43743021634E-02  1.47293474269E-02  1.50931623083E-02
  1.54659634173E-02  1.58479727137E-02  1.62394176398E-02  1.66405312555E-02
  1.70515523775E-02  1.74727257212E-02  1.79043020465E-02  1.83465383071E-02
  1.87996978032E-02  1.92640503390E-02  1.97398723824E-02  2.02274472302E-02
  2.07270651768E-02  2.12390236866E-02  2.17636275717E-02  2.23011891727E-02
  2.28520285453E-02  2.34164736504E-02  2.39948605495E-02  2.45875336051E-02
  2.51948456851E-02  2.58171583736E-02  2.64548421854E-02  2.71082767874E-02
  2.77778512240E-02  2.84639641493E-02  2.91670240637E-02  2.98874495581E-02
  3.06256695622E-02  3.13821236004E-02  3.21572620533E-02  3.29515464260E-02
  3.37654496228E-02  3.45994562284E-02  3.54540627973E-02  3.63297781484E-02
  3.72271236686E-02  3.81466336233E-02  3.90888554738E-02  4.00543502040E-02
  4.10436926540E-02  4.20574718625E-02  4.30962914176E-02  4.41607698156E-02
  4.52515408300E-02  4.63692538885E-02  4.75145744596E-02  4.86881844487E-02
  4.98907826046E-02  5.11230849349E-02  5.23858251328E-02  5.36797550136E-02
  5.50056449624E-02  5.63642843930E-02  5.77564822175E-02  5.91830673283E-02
  6.06448890913E-02  6.21428178519E-02  6.36777454528E-02  6.52505857655E-02
  6.68622752339E-02  6.85137734322E-02  7.02060636359E-02  7.19401534077E-02
  7.37170751969E-02  7.55378869543E-02  7.74036727621E-02  7.93155434793E-02
  8.12746374032E-02  8.32821209471E-02  8.53391893345E-02  8.74470673110E-02
  8.96070098736E-02  9.18203030175E-02  9.40882645020E-02  9.64122446352E-02
  9.87936270777E-02  1.01233829667E-01  1.03734305259E-01  1.06296542599E-01
  1.08922067201E-01  1.11612442261E-01  1.14369269585E-01  1.17194190544E-01
  1.20088887050E-01  1.23055082560E-01  1.26094543100E-01  1.29209078314E-01
  1.32400542549E-01  1.35670835950E-01  1.39021905598E-01  1.42455746666E-01
  1.45974403608E-01  1.49579971378E-01  1.53274596671E-01  1.57060479208E-01
  1.60939873045E-01  1.64915087909E-01  1.68988490580E-01  1.73162506298E-01
  1.77439620203E-01  1.81822378822E-01  1.86313391579E-01  1.90915332351E-01
  1.95630941060E-01  2.00463025304E-01  2.05414462029E-01  2.10488199242E-01
  2.15687257763E-01  2.21014733030E-01  2.26473796935E-01  2.32067699720E-01
  2.37799771903E-01  2.43673426269E-01  2.49692159898E-01  2.55859556247E-01
  2.62179287286E-01  2.68655115682E-01  2.75290897040E-01  2.82090582197E-01
  2.89058219577E-01  2.96197957600E-01  3.03514047153E-01  3.11010844118E-01
  3.18692811968E-01  3.26564524423E-01  3.34630668176E-01  3.42896045680E-01
  3.51365578009E-01  3.60044307785E-01  3.68937402188E-01  3.78050156022E-01
  3.87387994876E-01  3.96956478349E-01  4.06761303364E-01  4.16808307557E-01
  4.27103472754E-01  4.37652928531E-01  4.48462955866E-01  4.59539990876E-01
  4.70890628650E-01  4.82521627178E-01  4.94439911369E-01  5.06652577180E-01
  5.19166895836E-01  5.31990318163E-01  5.45130479022E-01  5.58595201854E-01
  5.72392503340E-01  5.86530598172E-01  6.01017903947E-01  6.15863046175E-01
  6.31074863415E-01  6.46662412541E-01  6.62634974131E-01  6.79002057992E-01
  6.95773408825E-01  7.12959012023E-01  7.30569099620E-01  7.48614156380E-01
  7.67104926043E-01  7.86052417716E-01  8.05467912434E-01  8.25362969871E-01
  8.45749435227E-01  8.66639446277E-01  8.88045440600E-01  9.09980162983E-01
  9.32456673008E-01  9.55488352832E-01  9.79088915146E-01  1.00327241135E+00
  1.02805323991E+00  1.05344615494E+00  1.07946627496E+00  1.10612909196E+00
  1.13345048053E+00  1.16144670740E+00  1.19013444107E+00  1.21953076176E+00
  1.24965317158E+00  1.28051960492E+00  1.31214843916E+00  1.34455850560E+00
  1.37776910069E+00  1.41179999748E+00  1.44667145742E+00  1.48240424242E+00
  1.51901962720E+00  1.55653941200E+00  1.59498593547E+00  1.63438208808E+00
  1.67475132565E+00  1.71611768340E+00  1.75850579018E+00  1.80194088319E+00
  1.84644882301E+00  1.89205610894E+00  1.93878989483E+00  1.98667800523E+00
  2.03574895196E+00  2.08603195107E+00  2.13755694027E+00  2.19035459669E+00
  2.24445635523E+00  2.29989442720E+00  2.35670181955E+00  2.41491235450E+00
  2.47456068965E+00  2.53568233869E+00  2.59831369245E+00  2.66249204066E+00
  2.72825559406E+00  2.79564350723E+00  2.86469590186E+00  2.93545389064E+00
  3.00795960174E+00  3.08225620390E+00  3.15838793214E+00  3.23640011406E+00
  3.31633919688E+00  3.39825277504E+00  3.48218961858E+00  3.56819970216E+00
  3.65633423481E+00  3.74664569041E+00  3.83918783896E+00  3.93401577858E+00
  4.03118596831E+00  4.13075626173E+00  4.23278594140E+00  4.33733575415E+00
  4.44446794728E+00  4.55424630557E+00  4.66673618932E+00  4.78200457320E+00
  4.90012008615E+00  5.02115305228E+00  5.14517553267E+00  5.27226136833E+00
  5.40248622413E+00  5.53592763387E+00  5.67266504642E+00  5.81277987307E+00
  5.95635553593E+00  6.10347751767E+00  6.25423341236E+00  6.40871297764E+00
  6.56700818819E+00  6.72921329044E+00  6.89542485871E+00  7.06574185272E+00
  7.24026567648E+00  7.41910023869E+00  7.60235201459E+00  7.79013010935E+00
  7.98254632305E+00  8.17971521723E+00  8.38175418310E+00  8.58878351142E+00
  8.80092646415E+00  9.01830934781E+00  9.24106158871E+00  9.46931580995E+00
  9.70320791045E+00  9.94287714584E+00  1.01884662113E+01  1.04401213268E+01
  1.06979923235E+01  1.09622327339E+01  1.12329998825E+01  1.15104549796E+01
  1.17947632175E+01  1.20860938690E+01  1.23846203876E+01  1.26905205112E+01
  1.30039763678E+01  1.33251745841E+01  1.36543063963E+01  1.39915677643E+01
  1.43371594881E+01  1.46912873274E+01  1.50541621244E+01  1.54259999289E+01
  1.58070221271E+01  1.61974555737E+01  1.65975327263E+01  1.70074917847E+01
  1.74275768317E+01  1.78580379795E+01  1.82991315176E+01  1.87511200661E+01
  1.92142727317E+01  1.96888652682E+01  2.01751802403E+01  2.06735071922E+01
  2.11841428199E+01  2.17073911475E+01  2.22435637089E+01  2.27929797325E+01
  2.33559663319E+01  2.39328587003E+01  2.45240003102E+01  2.51297431178E+01
  2.57504477728E+01  2.63864838328E+01  2.70382299835E+01  2.77060742641E+01
  2.83904142984E+01  2.90916575316E+01  2.98102214726E+01  3.05465339430E+01
  3.13010333314E+01  3.20741688547E+01  3.28664008254E+01  3.36782009258E+01
  3.45100524886E+01  3.53624507851E+01  3.62359033195E+01  3.71309301315E+01
  3.80480641057E+01  3.89878512891E+01  3.99508512160E+01  4.09376372410E+01
  4.19487968809E+01  4.29849321638E+01  4.40466599883E+01  4.51346124900E+01
  4.62494374185E+01  4.73917985227E+01  4.85623759462E+01  4.97618666321E+01
  5.09909847379E+01  5.22504620610E+01  5.35410484739E+01  5.48635123712E+01
  5.62186411267E+01  5.76072415626E+01  5.90301404292E+01  6.04881848978E+01
  6.19822430647E+01  6.35132044684E+01  6.50819806188E+01  6.66895055401E+01
  6.83367363269E+01  7.00246537142E+01  7.17542626609E+01  7.35265929487E+01
  7.53426997945E+01  7.72036644794E+01  7.91105949921E+01
  </PP_R>
  <PP_RAB>
  4.23609146242E-06  4.34072292154E-06  4.44793877770E-06  4.55780286551E-06
  4.67038059629E-06  4.78573899702E-06  4.90394675025E-06  5.02507423498E-06
  5.14919356858E-06  5.27637864972E-06  5.40670520237E-06  5.54025082087E-06
  5.67709501615E-06  5.81731926305E-06  5.96100704884E-06  6.10824392295E-06
  6.25911754785E-06  6.41371775128E-06  6.57213657973E-06  6.73446835325E-06
  6.90080972158E-06  7.07125972170E-06  7.24591983683E-06  7.42489405680E-06
  7.60828894000E-06  7.79621367682E-06  7.98878015464E-06  8.18610302446E-06
  8.38829976916E-06  8.59549077346E-06  8.80779939556E-06  9.02535204063E-06
  9.24827823604E-06  9.47671070847E-06  9.71078546297E-06  9.95064186390E-06
  1.01964227179E-05  1.04482743591E-05  1.07063467357E-05  1.09707935001E-05
  1.12417720996E-05  1.15194438704E-05  1.18039741340E-05  1.20955322951E-05
  1.23942919428E-05  1.27004309538E-05  1.30141315984E-05  1.33355806489E-05
  1.36649694909E-05  1.40024942373E-05  1.43483558450E-05  1.47027602343E-05
  1.50659184121E-05  1.54380465969E-05  1.58193663478E-05  1.62101046966E-05
  1.66104942826E-05  1.70207734914E-05  1.74411865967E-05  1.78719839056E-05
  1.83134219081E-05  1.87657634292E-05  1.92292777859E-05  1.97042409472E-05
  2.01909356986E-05  2.06896518104E-05  2.12006862101E-05  2.17243431595E-05
  2.22609344355E-05  2.28107795161E-05  2.33742057701E-05  2.39515486526E-05
  2.45431519044E-05  2.51493677564E-05  2.57705571400E-05  2.64070899013E-05
  2.70593450219E-05  2.77277108439E-05  2.84125853018E-05  2.91143761587E-05
  2.98335012499E-05  3.05703887307E-05  3.13254773324E-05  3.20992166225E-05
  3.28920672731E-05  3.37045013347E-05  3.45370025177E-05  3.53900664799E-05
  3.62642011219E-05  3.71599268896E-05  3.80777770838E-05  3.90182981778E-05
  3.99820501428E-05  4.09696067813E-05  4.19815560688E-05  4.30185005037E-05
  4.40810574661E-05  4.51698595855E-05  4.62855551173E-05  4.74288083287E-05
  4.86002998944E-05  4.98007273018E-05  5.10308052662E-05  5.22912661562E-05
  5.35828604303E-05  5.49063570829E-05  5.62625441029E-05  5.76522289422E-05
  5.90762389971E-05  6.05354221003E-05  6.20306470262E-05  6.35628040077E-05
  6.51328052667E-05  6.67415855568E-05  6.83901027201E-05  7.00793382573E-05
  7.18102979122E-05  7.35840122706E-05  7.54015373737E-05  7.72639553469E-05
  7.91723750439E-05  8.11279327075E-05  8.31317926454E-05  8.51851479237E-05
  8.72892210774E-05  8.94452648381E-05  9.16545628796E-05  9.39184305827E-05
  9.62382158181E-05  9.86152997488E-05  1.01051097653E-04  1.03547059765E-04
  1.06104672141E-04  1.08725457543E-04  1.11410976344E-04  1.14162827460E-04
  1.16982649298E-04  1.19872120736E-04  1.22832962118E-04  1.25866936282E-04
  1.28975849608E-04  1.32161553094E-04  1.35425943455E-04  1.38770964258E-04
  1.42198607075E-04  1.45710912670E-04  1.49309972213E-04  1.52997928527E-04
  1.56776977361E-04  1.60649368702E-04  1.64617408109E-04  1.68683458090E-04
  1.72849939504E-04  1.77119333010E-04  1.81494180535E-04  1.85977086795E-04
  1.90570720839E-04  1.95277817643E-04  2.00101179739E-04  2.05043678879E-04
  2.10108257747E-04  2.15297931713E-04  2.20615790627E-04  2.26065000655E-04
  2.31648806171E-04  2.37370531684E-04  2.43233583816E-04  2.49241453336E-04
  2.55397717234E-04  2.61706040850E-04  2.68170180059E-04  2.74793983506E-04
  2.81581394899E-04  2.88536455353E-04  2.95663305800E-04  3.02966189453E-04
  3.10449454333E-04  3.18117555855E-04  3.25975059484E-04  3.34026643453E-04
  3.42277101547E-04  3.50731345955E-04  3.59394410200E-04  3.68271452132E-04
  3.77367757000E-04  3.86688740597E-04  3.96239952490E-04  4.06027079317E-04
  4.16055948176E-04  4.26332530096E-04  4.36862943589E-04  4.47653458296E-04
  4.58710498716E-04  4.70040648034E-04  4.81650652040E-04  4.93547423146E-04
  5.05738044498E-04  5.18229774197E-04  5.31030049619E-04  5.44146491845E-04
  5.57586910193E-04  5.71359306875E-04  5.85471881755E-04  5.99933037234E-04
  6.14751383254E-04  6.29935742420E-04  6.45495155258E-04  6.61438885593E-04
  6.77776426067E-04  6.94517503791E-04  7.11672086135E-04  7.29250386662E-04
  7.47262871213E-04  7.65720264132E-04  7.84633554656E-04  8.04014003456E-04
  8.23873149341E-04  8.44222816130E-04  8.65075119688E-04  8.86442475145E-04
  9.08337604281E-04  9.30773543106E-04  9.53763649621E-04  9.77321611767E-04
  1.00146145558E-03  1.02619755353E-03  1.05154463310E-03  1.07751778554E-03
  1.10413247484E-03  1.13140454697E-03  1.15935023928E-03  1.18798619019E-03
  1.21732944909E-03  1.24739748648E-03  1.27820820440E-03  1.30977994705E-03
  1.34213151174E-03  1.37528216008E-03  1.40925162943E-03  1.44406014468E-03
  1.47972843025E-03  1.51627772248E-03  1.55372978223E-03  1.59210690785E-03
  1.63143194847E-03  1.67172831760E-03  1.71302000704E-03  1.75533160122E-03
  1.79868829177E-03  1.84311589257E-03  1.88864085512E-03  1.93529028424E-03
  1.98309195426E-03  2.03207432553E-03  2.08226656137E-03  2.13369854544E-03
  2.18640089951E-03  2.24040500173E-03  2.29574300527E-03  2.35244785750E-03
  2.41055331958E-03  2.47009398658E-03  2.53110530804E-03  2.59362360915E-03
  2.65768611230E-03  2.72333095927E-03  2.79059723397E-03  2.85952498565E-03
  2.93015525279E-03  3.00253008754E-03  3.07669258070E-03  3.15268688744E-03
  3.23055825356E-03  3.31035304242E-03  3.39211876257E-03  3.47590409601E-03
  3.56175892718E-03  3.64973437268E-03  3.73988281169E-03  3.83225791713E-03
  3.92691468769E-03  4.02390948047E-03  4.12330004464E-03  4.22514555574E-03
  4.32950665097E-03  4.43644546525E-03  4.54602566824E-03  4.65831250225E-03
  4.77337282105E-03  4.89127512973E-03  5.01208962544E-03  5.13588823918E-03
  5.26274467869E-03  5.39273447226E-03  5.52593501372E-03  5.66242560856E-03
  5.80228752109E-03  5.94560402286E-03  6.09246044223E-03  6.24294421515E-03
  6.39714493726E-03  6.55515441721E-03  6.71706673132E-03  6.88297827958E-03
  7.05298784309E-03  7.22719664281E-03  7.40570839989E-03  7.58862939737E-03
  7.77606854348E-03  7.96813743651E-03  8.16495043119E-03  8.36662470684E-03
  8.57328033710E-03  8.78504036142E-03  9.00203085835E-03  9.22438102055E-03
  9.45222323176E-03  9.68569314558E-03  9.92492976628E-03  1.01700755315E-02
  1.04212763971E-02  1.06786819241E-02  1.09424453677E-02  1.12127237683E-02
  1.14896780453E-02  1.17734730930E-02  1.20642778784E-02  1.23622655420E-02
  1.26676135009E-02  1.29805035544E-02  1.33011219922E-02  1.36296597054E-02
  1.39663123001E-02  1.43112802139E-02  1.46647688352E-02  1.50269886255E-02
  1.53981552445E-02  1.57784896790E-02  1.61682183741E-02  1.65675733680E-02
  1.69767924301E-02  1.73961192032E-02  1.78258033475E-02  1.82661006902E-02
  1.87172733772E-02  1.91795900296E-02  1.96533259034E-02  2.01387630532E-02
  2.06361905006E-02  2.11459044060E-02  2.16682082448E-02  2.22034129884E-02
  2.27518372893E-02  2.33138076703E-02  2.38896587198E-02  2.44797332901E-02
  2.50843827024E-02  2.57039669551E-02  2.63388549389E-02  2.69894246559E-02
  2.76560634449E-02  2.83391682120E-02  2.90391456669E-02  2.97564125648E-02
  3.04913959552E-02  3.12445334353E-02  3.20162734111E-02  3.28070753644E-02
  3.36174101259E-02  3.44477601560E-02  3.52986198318E-02  3.61704957417E-02
  3.70639069865E-02  3.79793854891E-02  3.89174763107E-02  3.98787379755E-02
  4.08637428035E-02  4.18730772508E-02  4.29073422589E-02  4.39671536127E-02
  4.50531423069E-02  4.61659549219E-02  4.73062540084E-02  4.84747184824E-02
  4.96720440290E-02  5.08989435165E-02  5.21561474213E-02  5.34444042626E-02
  5.47644810479E-02  5.61171637298E-02  5.75032576739E-02  5.89235881385E-02
  6.03790007655E-02  6.18703620844E-02  6.33985600279E-02  6.49645044606E-02
  6.65691277208E-02  6.82133851755E-02  6.98982557893E-02  7.16247427073E-02
  7.33938738522E-02  7.52067025363E-02  7.70643080890E-02  7.89677964988E-02
  8.09183010723E-02  8.29169831088E-02  8.49650325916E-02  8.70636688966E-02
  8.92141415183E-02  9.14177308138E-02  9.36757487649E-02  9.59895397594E-02
  9.83604813915E-02  1.00789985282E-01  1.03279497918E-01  1.05830501517E-01
  1.08444514904E-01  1.11123094422E-01  1.13867834855E-01  1.16680370376E-01
  1.19562375524E-01  1.22515566199E-01  1.25541700684E-01  1.28642580691E-01
  1.31820052434E-01  1.35076007730E-01  1.38412385121E-01  1.41831171033E-01
  1.45334400957E-01  1.48924160661E-01  1.52602587429E-01  1.56371871339E-01
  1.60234256561E-01  1.64192042698E-01  1.68247586153E-01  1.72403301531E-01
  1.76661663079E-01  1.81025206157E-01  1.85496528749E-01  1.90078293009E-01
  1.94773226846E-01  1.99584125549E-01  2.04513853450E-01  2.09565345630E-01
  2.14741609668E-01  2.20045727426E-01  2.25480856894E-01  2.31050234059E-01
  2.36757174840E-01  2.42605077059E-01  2.48597422462E-01  2.54737778797E-01
  2.61029801933E-01  2.67477238041E-01  2.74083925821E-01  2.80853798788E-01
  2.87790887618E-01  2.94899322543E-01  3.02183335809E-01  3.09647264204E-01
  3.17295551630E-01  3.25132751755E-01  3.33163530723E-01  3.41392669932E-01
  3.49825068880E-01  3.58465748081E-01  3.67319852059E-01  3.76392652404E-01
  3.85689550919E-01  3.95216082826E-01  4.04977920072E-01  4.14980874698E-01
  4.25230902303E-01  4.35734105590E-01  4.46496737998E-01  4.57525207427E-01
  4.68826080050E-01  4.80406084227E-01  4.92272114508E-01  5.04431235736E-01
  5.16890687259E-01  5.29657887234E-01  5.42740437049E-01  5.56146125844E-01
  5.69882935152E-01  5.83959043650E-01  5.98382832029E-01  6.13162887980E-01
  6.28308011313E-01  6.43827219192E-01  6.59729751506E-01  6.76025076368E-01
  6.92722895755E-01  7.09833151280E-01  7.27366030116E-01  7.45331971060E-01
  7.63741670746E-01  7.82606090013E-01  8.01936460436E-01  8.21744291009E-01
  8.42041374997E-01  8.62839796959E-01  8.84151939944E-01  9.05990492861E-01
  9.28368458035E-01  9.51299158948E-01  9.74796248174E-01  9.98873715504E-01
  1.02354589628E+00  1.04882747991E+00  1.07473351867E+00  1.10127943658E+00
  1.12848103866E+00  1.15635452032E+00  1.18491647697E+00  1.21418391395E+00
  1.24417425663E+00  1.27490536076E+00  1.30639552318E+00  1.33866349260E+00
  1.37172848087E+00  1.40561017434E+00  1.44032874565E+00  1.47590486567E+00
  1.51235971585E+00  1.54971500083E+00  1.58799296135E+00  1.62721638750E+00
  1.66740863227E+00  1.70859362548E+00  1.75079588803E+00  1.79404054647E+00
  1.83835334797E+00  1.88376067566E+00  1.93028956435E+00
  </PP_RAB>
</PP_MESH>


<PP_LOCAL>
 -1.55979668925E+01 -1.55979680360E+01 -1.55979692190E+01 -1.55979704438E+01
 -1.55979717131E+01 -1.55979730294E+01 -1.55979743955E+01 -1.55979758142E+01
 -1.55979772886E+01 -1.55979788218E+01 -1.55979804171E+01 -1.55979820780E+01
 -1.55979838080E+01 -1.55979856111E+01 -1.55979874912E+01 -1.55979894523E+01
 -1.55979914990E+01 -1.55979936358E+01 -1.55979958674E+01 -1.55979981989E+01
 -1.55980006357E+01 -1.55980031831E+01 -1.55980058471E+01 -1.55980086337E+01
 -1.55980115493E+01 -1.55980146006E+01 -1.55980177947E+01 -1.55980211389E+01
 -1.55980246409E+01 -1.55980283089E+01 -1.55980321514E+01 -1.55980361773E+01
 -1.55980403960E+01 -1.55980448174E+01 -1.55980494517E+01 -1.55980543099E+01
 -1.55980594033E+01 -1.55980647439E+01 -1.55980703442E+01 -1.55980762174E+01
 -1.55980823772E+01 -1.55980888383E+01 -1.55980956157E+01 -1.55981027255E+01
 -1.55981101845E+01 -1.55981180103E+01 -1.55981262213E+01 -1.55981348371E+01
 -1.55981438778E+01 -1.55981533650E+01 -1.55981633211E+01 -1.55981737696E+01
 -1.55981847354E+01 -1.55981962443E+01 -1.55982083237E+01 -1.55982210022E+01
 -1.55982343099E+01 -1.55982482783E+01 -1.55982629406E+01 -1.55982783315E+01
 -1.55982944876E+01 -1.55983114473E+01 -1.55983292507E+01 -1.55983479403E+01
 -1.55983675602E+01 -1.55983881572E+01 -1.55984097802E+01 -1.55984324804E+01
 -1.55984563119E+01 -1.55984813312E+01 -1.55985075978E+01 -1.55985351741E+01
 -1.55985641256E+01 -1.55985945210E+01 -1.55986264325E+01 -1.55986599361E+01
 -1.55986951112E+01 -1.55987320415E+01 -1.55987708146E+01 -1.55988115226E+01
 -1.55988542623E+01 -1.55988991351E+01 -1.55989462477E+01 -1.55989957118E+01
 -1.55990476450E+01 -1.55991021706E+01 -1.55991594179E+01 -1.55992195229E+01
 -1.55992826282E+01 -1.55993488837E+01 -1.55994184464E+01 -1.55994914815E+01
 -1.55995681621E+01 -1.55996486701E+01 -1.55997331965E+01 -1.55998219416E+01
 -1.55999151157E+01 -1.56000129397E+01 -1.56001156453E+01 -1.56002234757E+01
 -1.56003366863E+01 -1.56004555451E+01 -1.56005803334E+01 -1.56007113464E+01
 -1.56008488939E+01 -1.56009933011E+01 -1.56011449094E+01 -1.56013040769E+01
 -1.56014711795E+01 -1.56016466116E+01 -1.56018307872E+01 -1.56020241407E+01
 -1.56022271278E+01 -1.56024402267E+01 -1.56026639393E+01 -1.56028987921E+01
 -1.56031453375E+01 -1.56034041549E+01 -1.56036758523E+01 -1.56039610676E+01
 -1.56042604697E+01 -1.56045747604E+01 -1.56049046758E+01 -1.56052509878E+01
 -1.56056145061E+01 -1.56059960798E+01 -1.56063965993E+01 -1.56068169981E+01
 -1.56072582553E+01 -1.56077213970E+01 -1.56082074993E+01 -1.56087176898E+01
 -1.56092531508E+01 -1.56098151213E+01 -1.56104048995E+01 -1.56110238462E+01
 -1.56116733867E+01 -1.56123550147E+01 -1.56130702945E+01 -1.56138208646E+01
 -1.56146084413E+01 -1.56154348212E+01 -1.56163018859E+01 -1.56172116046E+01
 -1.56181660387E+01 -1.56191673452E+01 -1.56202177813E+01 -1.56213197080E+01
 -1.56224755948E+01 -1.56236880240E+01 -1.56249596955E+01 -1.56262934313E+01
 -1.56276921802E+01 -1.56291590232E+01 -1.56306971781E+01 -1.56323100050E+01
 -1.56340010111E+01 -1.56357738567E+01 -1.56376323600E+01 -1.56395805028E+01
 -1.56416224362E+01 -1.56437624855E+01 -1.56460051565E+01 -1.56483551405E+01
 -1.56508173197E+01 -1.56533967728E+01 -1.56560987800E+01 -1.56589288280E+01
 -1.56618926152E+01 -1.56649960557E+01 -1.56682452839E+01 -1.56716466582E+01
 -1.56752067645E+01 -1.56789324188E+01 -1.56828306698E+01 -1.56869088001E+01
 -1.56911743271E+01 -1.56956350026E+01 -1.57002988120E+01 -1.57051739712E+01
 -1.57102689235E+01 -1.57155923340E+01 -1.57211530830E+01 -1.57269602575E+01
 -1.57330231404E+01 -1.57393511976E+01 -1.57459540633E+01 -1.57528415219E+01
 -1.57600234875E+01 -1.57675099802E+01 -1.57753110989E+01 -1.57834369909E+01
 -1.57918978171E+01 -1.58007037133E+01 -1.58098647474E+01 -1.58193908708E+01
 -1.58292918661E+01 -1.58395772884E+01 -1.58502564016E+01 -1.58613381090E+01
 -1.58728308768E+01 -1.58847426527E+01 -1.58970807771E+01 -1.59098518877E+01
 -1.59230618175E+01 -1.59367154866E+01 -1.59508167860E+01 -1.59653684560E+01
 -1.59803719574E+01 -1.59958273368E+01 -1.60117330862E+01 -1.60280859978E+01
 -1.60448810132E+01 -1.60621110707E+01 -1.60797669481E+01 -1.60978371059E+01
 -1.61163075294E+01 -1.61351615726E+01 -1.61543798059E+01 -1.61739398691E+01
 -1.61938163320E+01 -1.62139805656E+01 -1.62344006256E+01 -1.62550411524E+01
 -1.62758632895E+01 -1.62968246239E+01 -1.63178791522E+01 -1.63389772754E+01
 -1.63600658260E+01 -1.63810881309E+01 -1.64019841133E+01 -1.64226904369E+01
 -1.64431406956E+01 -1.64632656510E+01 -1.64829935197E+01 -1.65022503131E+01
 -1.65209602293E+01 -1.65390460989E+01 -1.65564298827E+01 -1.65730332212E+01
 -1.65887780322E+01 -1.66035871535E+01 -1.66173850256E+01 -1.66300984077E+01
 -1.66416571209E+01 -1.66519948077E+01 -1.66610496998E+01 -1.66687653814E+01
 -1.66750915366E+01 -1.66799846672E+01 -1.66834087664E+01 -1.66853359359E+01
 -1.66857469290E+01 -1.66846316091E+01 -1.66819893063E+01 -1.66778290630E+01
 -1.66721697557E+01 -1.66650400856E+01 -1.66564784307E+01 -1.66465325567E+01
 -1.66352591869E+01 -1.66227234332E+01 -1.66089980963E+01 -1.65941628443E+01
 -1.65783032847E+01 -1.65615099449E+01 -1.65438771818E+01 -1.65255020415E+01
 -1.65064830920E+01 -1.64869192520E+01 -1.64669086397E+01 -1.64465474645E+01
 -1.64259289805E+01 -1.64051425234E+01 -1.63842726434E+01 -1.63633983495E+01
 -1.63425924710E+01 -1.63219211451E+01 -1.63014434282E+01 -1.62812110330E+01
 -1.62612681829E+01 -1.62416515791E+01 -1.62223904675E+01 -1.62035067966E+01
 -1.61850154514E+01 -1.61669245510E+01 -1.61492357953E+01 -1.61319448497E+01
 -1.61150417520E+01 -1.60985113339E+01 -1.60823336432E+01 -1.60664843612E+01
 -1.60509352065E+01 -1.60356543194E+01 -1.60206066247E+01 -1.60057541690E+01
 -1.59910564317E+01 -1.59764706105E+01 -1.59619518821E+01 -1.59474536405E+01
 -1.59329277156E+01 -1.59183245749E+01 -1.59035935126E+01 -1.58886828291E+01
 -1.58735400028E+01 -1.58581118599E+01 -1.58423447407E+01 -1.58261846663E+01
 -1.58095775042E+01 -1.57924691318E+01 -1.57748055965E+01 -1.57565332664E+01
 -1.57375989678E+01 -1.57179501020E+01 -1.56975347343E+01 -1.56763016437E+01
 -1.56542003274E+01 -1.56311809472E+01 -1.56071942095E+01 -1.55821911705E+01
 -1.55561229601E+01 -1.55289404188E+01 -1.55005936487E+01 -1.54710314781E+01
 -1.54402008489E+01 -1.54080461372E+01 -1.53745084233E+01 -1.53395247328E+01
 -1.53030272743E+01 -1.52649427058E+01 -1.52251914621E+01 -1.51836871846E+01
 -1.51403362924E+01 -1.50950377419E+01 -1.50476830190E+01 -1.49981564159E+01
 -1.49463356410E+01 -1.48920928145E+01 -1.48352959019E+01 -1.47758106308E+01
 -1.47135029320E+01 -1.46482419246E+01 -1.45799034318E+01 -1.45083739575E+01
 -1.44335549562E+01 -1.43553670814E+01 -1.42737538677E+01 -1.41886839800E+01
 -1.41001507168E+01 -1.40081669069E+01 -1.39127527574E+01 -1.38139137802E+01
 -1.37116060740E+01 -1.36056876187E+01 -1.34958578137E+01 -1.33815940568E+01
 -1.32621035665E+01 -1.31363182224E+01 -1.30029635891E+01 -1.28607215821E+01
 -1.27084739212E+01 -1.25455681053E+01 -1.23720139755E+01 -1.21885268170E+01
 -1.19963904195E+01 -1.17971911385E+01 -1.15925237324E+01 -1.13837645273E+01
 -1.11719605542E+01 -1.09578303991E+01 -1.07418408855E+01 -1.05243186574E+01
 -1.03055674914E+01 -1.00859785289E+01 -9.86613369925E+00 -9.64682574233E+00
 -9.42877846669E+00 -9.21274783578E+00 -8.99962211343E+00 -8.79039811146E+00
 -8.58582528178E+00 -8.38642149382E+00 -8.19247921821E+00 -8.00402136412E+00
 -7.82077076284E+00 -7.64214562302E+00 -7.46729889459E+00 -7.29522736573E+00
 -7.12498689432E+00 -6.95606425926E+00 -6.78897495794E+00 -6.62539851958E+00
 -6.46575217659E+00 -6.30994188305E+00 -6.15787613571E+00 -6.00946587106E+00
 -5.86462435233E+00 -5.72326704468E+00 -5.58531148300E+00 -5.45067714067E+00
 -5.31928530896E+00 -5.19105899538E+00 -5.06592284612E+00 -4.94380309356E+00
 -4.82462752614E+00 -4.70832547563E+00 -4.59482781522E+00 -4.48406696211E+00
 -4.37597687945E+00 -4.27049307362E+00 -4.16755258471E+00 -4.06709396972E+00