<PP_INFO>
Generated using "atomic" code by A. Dal Corso  (Quantum ESPRESSO distributi
Author: D.C.   Generation date: 18Oct2011                                  
Mg                                                                         
    1        The Pseudo was generated with a Scalar-Relativistic Calculation
    2 2.5000000E+00    L component and cutoff radius for Local Potential
nl pn  l   occ               Rcut            Rcut US             E pseu
3S  1  0  1.00      2.50000000000      2.50000000000     -0.83626893324
3P  2  1  0.00      2.50000000000      2.50000000000     -0.51801128256
3D  3  2  0.00      2.50000000000      2.50000000000     -0.20830957115
</PP_INFO>


<PP_HEADER>
   0                   Version Number
  Mg                   Element
   NC                  Norm - Conserving pseudopotential
    T                  Nonlinear Core Correction
 SLA  PW   PBX  PBC    PBE    Exchange-Correlation functional
    2.00000000000      Z valence
   -1.42765804605      Total energy
      0.000      0.000 Suggested cutoff for wfc and rho
    2                  Max angular momentum component
 1511                  Number of points in mesh
    5    2             Number of Wavefunctions, Number of Projectors
 Wavefunctions         nl  l   occ
                       3S  0  1.00
                       3P  1  0.00
                       3D  2  0.00
                       4S  0  0.00
                       4P  1  0.00
</PP_HEADER>


<PP_MESH>
  <PP_R>
  2.79552189919E-05  2.82361736136E-05  2.85199518763E-05  2.88065821578E-05
  2.90960931217E-05  2.93885137190E-05  2.96838731923E-05  2.99822010775E-05
  3.02835272079E-05  3.05878817163E-05  3.08952950383E-05  3.12057979155E-05
  3.15194213986E-05  3.18361968500E-05  3.21561559477E-05  3.24793306877E-05
  3.28057533879E-05  3.31354566908E-05  3.34684735669E-05  3.38048373183E-05
  3.41445815816E-05  3.44877403316E-05  3.48343478843E-05  3.51844389008E-05
  3.55380483905E-05  3.58952117146E-05  3.62559645899E-05  3.66203430918E-05
  3.69883836586E-05  3.73601230945E-05  3.77355985739E-05  3.81148476446E-05
  3.84979082318E-05  3.88848186419E-05  3.92756175663E-05  3.96703440852E-05
  4.00690376715E-05  4.04717381950E-05  4.08784859261E-05  4.12893215398E-05
  4.17042861201E-05  4.21234211637E-05  4.25467685845E-05  4.29743707177E-05
  4.34062703238E-05  4.38425105930E-05  4.42831351499E-05  4.47281880571E-05
  4.51777138205E-05  4.56317573928E-05  4.60903641790E-05  4.65535800400E-05
  4.70214512977E-05  4.74940247398E-05  4.79713476239E-05  4.84534676828E-05
  4.89404331288E-05  4.94322926589E-05  4.99290954595E-05  5.04308912113E-05
  5.09377300941E-05  5.14496627925E-05  5.19667405000E-05  5.24890149248E-05
  5.30165382949E-05  5.35493633630E-05  5.40875434120E-05  5.46311322605E-05
  5.51801842677E-05  5.57347543393E-05  5.62948979328E-05  5.68606710630E-05
  5.74321303077E-05  5.80093328133E-05  5.85923363005E-05  5.91811990702E-05
  5.97759800091E-05  6.03767385958E-05  6.09835349067E-05  6.15964296219E-05
  6.22154840314E-05  6.28407600411E-05  6.34723201792E-05  6.41102276023E-05
  6.47545461015E-05  6.54053401092E-05  6.60626747055E-05  6.67266156244E-05
  6.73972292603E-05  6.80745826754E-05  6.87587436055E-05  6.94497804672E-05
  7.01477623649E-05  7.08527590972E-05  7.15648411645E-05  7.22840797756E-05
  7.30105468549E-05  7.37443150497E-05  7.44854577374E-05  7.52340490330E-05
  7.59901637962E-05  7.67538776391E-05  7.75252669337E-05  7.83044088197E-05
  7.90913812117E-05  7.98862628078E-05  8.06891330968E-05  8.15000723663E-05
  8.23191617109E-05  8.31464830404E-05  8.39821190874E-05  8.48261534163E-05
  8.56786704312E-05  8.65397553846E-05  8.74094943856E-05  8.82879744090E-05
  8.91752833033E-05  9.00715098003E-05  9.09767435233E-05  9.18910749965E-05
  9.28145956537E-05  9.37473978479E-05  9.46895748600E-05  9.56412209085E-05
  9.66024311587E-05  9.75733017326E-05  9.85539297180E-05  9.95444131784E-05
  1.00544851163E-04  1.01555343717E-04  1.02575991889E-04  1.03606897747E-04
  1.04648164380E-04  1.05699895917E-04  1.06762197532E-04  1.07835175455E-04
  1.08918936986E-04  1.10013590502E-04  1.11119245468E-04  1.12236012451E-04
  1.13364003129E-04  1.14503330302E-04  1.15654107903E-04  1.16816451011E-04
  1.17990475862E-04  1.19176299859E-04  1.20374041585E-04  1.21583820816E-04
  1.22805758529E-04  1.24039976922E-04  1.25286599415E-04  1.26545750672E-04
  1.27817556610E-04  1.29102144411E-04  1.30399642533E-04  1.31710180728E-04
  1.33033890051E-04  1.34370902874E-04  1.35721352899E-04  1.37085375173E-04
  1.38463106098E-04  1.39854683449E-04  1.41260246385E-04  1.42679935464E-04
  1.44113892655E-04  1.45562261355E-04  1.47025186403E-04  1.48502814092E-04
  1.49995292186E-04  1.51502769934E-04  1.53025398086E-04  1.54563328905E-04
  1.56116716185E-04  1.57685715267E-04  1.59270483053E-04  1.60871178019E-04
  1.62487960237E-04  1.64120991387E-04  1.65770434772E-04  1.67436455339E-04
  1.69119219691E-04  1.70818896106E-04  1.72535654553E-04  1.74269666710E-04
  1.76021105978E-04  1.77790147503E-04  1.79576968191E-04  1.81381746726E-04
  1.83204663587E-04  1.85045901067E-04  1.86905643290E-04  1.88784076235E-04
  1.90681387744E-04  1.92597767550E-04  1.94533407294E-04  1.96488500541E-04
  1.98463242801E-04  2.00457831552E-04  2.02472466252E-04  2.04507348368E-04
  2.06562681389E-04  2.08638670850E-04  2.10735524352E-04  2.12853451583E-04
  2.14992664336E-04  2.17153376534E-04  2.19335804251E-04  2.21540165731E-04
  2.23766681413E-04  2.26015573949E-04  2.28287068231E-04  2.30581391410E-04
  2.32898772920E-04  2.35239444501E-04  2.37603640223E-04  2.39991596507E-04
  2.42403552151E-04  2.44839748352E-04  2.47300428732E-04  2.49785839360E-04
  2.52296228781E-04  2.54831848035E-04  2.57392950686E-04  2.59979792847E-04
  2.62592633204E-04  2.65231733042E-04  2.67897356276E-04  2.70589769468E-04
  2.73309241862E-04  2.76056045408E-04  2.78830454789E-04  2.81632747448E-04
  2.84463203616E-04  2.87322106342E-04  2.90209741518E-04  2.93126397909E-04
  2.96072367185E-04  2.99047943944E-04  3.02053425747E-04  3.05089113144E-04
  3.08155309707E-04  3.11252322057E-04  3.14380459899E-04  3.17540036049E-04
  3.20731366468E-04  3.23954770290E-04  3.27210569859E-04  3.30499090758E-04
  3.33820661841E-04  3.37175615269E-04  3.40564286539E-04  3.43987014521E-04
  3.47444141492E-04  3.50936013166E-04  3.54462978735E-04  3.58025390896E-04
  3.61623605895E-04  3.65257983556E-04  3.68928887319E-04  3.72636684279E-04
  3.76381745218E-04  3.80164444645E-04  3.83985160833E-04  3.87844275857E-04
  3.91742175632E-04  3.95679249951E-04  3.99655892525E-04  4.03672501021E-04
  4.07729477103E-04  4.11827226473E-04  4.15966158909E-04  4.20146688308E-04
  4.24369232725E-04  4.28634214419E-04  4.32942059892E-04  4.37293199932E-04
  4.41688069656E-04  4.46127108555E-04  4.50610760537E-04  4.55139473970E-04
  4.59713701730E-04  4.64333901243E-04  4.69000534534E-04  4.73714068268E-04
  4.78474973805E-04  4.83283727237E-04  4.88140809445E-04  4.93046706140E-04
  4.98001907917E-04  5.03006910300E-04  5.08062213793E-04  5.13168323931E-04
  5.18325751329E-04  5.23535011733E-04  5.28796626076E-04  5.34111120521E-04
  5.39479026524E-04  5.44900880879E-04  5.50377225776E-04  5.55908608855E-04
  5.61495583257E-04  5.67138707686E-04  5.72838546458E-04  5.78595669562E-04
  5.84410652715E-04  5.90284077421E-04  5.96216531026E-04  6.02208606781E-04
  6.08260903899E-04  6.14374027614E-04  6.20548589244E-04  6.26785206249E-04
  6.33084502298E-04  6.39447107325E-04  6.45873657595E-04  6.52364795769E-04
  6.58921170966E-04  6.65543438830E-04  6.72232261592E-04  6.78988308140E-04
  6.85812254085E-04  6.92704781827E-04  6.99666580624E-04  7.06698346663E-04
  7.13800783125E-04  7.20974600260E-04  7.28220515456E-04  7.35539253311E-04
  7.42931545703E-04  7.50398131870E-04  7.57939758475E-04  7.65557179687E-04
  7.73251157255E-04  7.81022460584E-04  7.88871866809E-04  7.96800160879E-04
  8.04808135628E-04  8.12896591862E-04  8.21066338432E-04  8.29318192321E-04
  8.37652978719E-04  8.46071531114E-04  8.54574691367E-04  8.63163309801E-04
  8.71838245286E-04  8.80600365321E-04  8.89450546127E-04  8.98389672729E-04
  9.07418639046E-04  9.16538347984E-04  9.25749711520E-04  9.35053650799E-04
  9.44451096222E-04  9.53942987542E-04  9.63530273956E-04  9.73213914200E-04
  9.82994876646E-04  9.92874139399E-04  1.00285269039E-03  1.01293152749E-03
  1.02311165859E-03  1.03339410170E-03  1.04377988509E-03  1.05427004733E-03
  1.06486563746E-03  1.07556771504E-03  1.08637735029E-03  1.09729562417E-03
  1.10832362854E-03  1.11946246619E-03  1.13071325102E-03  1.14207710811E-03
  1.15355517387E-03  1.16514859611E-03  1.17685853418E-03  1.18868615908E-03
  1.20063265359E-03  1.21269921237E-03  1.22488704208E-03  1.23719736151E-03
  1.24963140171E-03  1.26219040609E-03  1.27487563056E-03  1.28768834366E-03
  1.30062982667E-03  1.31370137374E-03  1.32690429204E-03  1.34023990188E-03
  1.35370953683E-03  1.36731454386E-03  1.38105628348E-03  1.39493612988E-03
  1.40895547106E-03  1.42311570896E-03  1.43741825961E-03  1.45186455329E-03
  1.46645603464E-03  1.48119416280E-03  1.49608041163E-03  1.51111626973E-03
  1.52630324073E-03  1.54164284332E-03  1.55713661148E-03  1.57278609460E-03
  1.58859285763E-03  1.60455848128E-03  1.62068456212E-03  1.63697271276E-03
  1.65342456203E-03  1.67004175514E-03  1.68682595382E-03  1.70377883649E-03
  1.72090209848E-03  1.73819745210E-03  1.75566662692E-03  1.77331136986E-03
  1.79113344542E-03  1.80913463582E-03  1.82731674119E-03  1.84568157975E-03
  1.86423098801E-03  1.88296682093E-03  1.90189095209E-03  1.92100527394E-03
  1.94031169791E-03  1.95981215467E-03  1.97950859428E-03  1.99940298639E-03
  2.01949732047E-03  2.03979360597E-03  2.06029387253E-03  2.08100017019E-03
  2.10191456960E-03  2.12303916222E-03  2.14437606053E-03  2.16592739823E-03
  2.18769533047E-03  2.20968203407E-03  2.23188970772E-03  2.25432057220E-03
  2.27697687061E-03  2.29986086860E-03  2.32297485460E-03  2.34632114003E-03
  2.36990205952E-03  2.39371997119E-03  2.41777725685E-03  2.44207632225E-03
  2.46661959732E-03  2.49140953641E-03  2.51644861853E-03  2.54173934760E-03
  2.56728425273E-03  2.59308588842E-03  2.61914683486E-03  2.64546969817E-03
  2.67205711066E-03  2.69891173108E-03  2.72603624492E-03  2.75343336466E-03
  2.78110583003E-03  2.80905640830E-03  2.83728789455E-03  2.86580311196E-03
  2.89460491206E-03  2.92369617507E-03  2.95307981013E-03  2.98275875564E-03
  3.01273597950E-03  3.04301447948E-03  3.07359728344E-03  3.10448744968E-03
  3.13568806726E-03  3.16720225626E-03  3.19903316813E-03  3.23118398598E-03
  3.26365792492E-03  3.29645823237E-03  3.32958818839E-03  3.36305110600E-03
  3.39685033153E-03  3.43098924492E-03  3.46547126010E-03  3.50029982529E-03
  3.53547842338E-03  3.57101057225E-03  3.60689982516E-03  3.64314977106E-03
  3.67976403497E-03  3.71674627836E-03  3.75410019946E-03  3.79182953372E-03
  3.82993805409E-03  3.86842957145E-03  3.90730793500E-03  3.94657703260E-03
  3.98624079118E-03  4.02630317717E-03  4.06676819683E-03  4.10763989671E-03
  4.14892236399E-03  4.19061972697E-03  4.23273615541E-03  4.27527586099E-03
  4.31824309773E-03  4.36164216237E-03  4.40547739486E-03  4.44975317877E-03
  4.49447394170E-03  4.53964415577E-03  4.58526833803E-03  4.63135105096E-03
  4.67789690284E-03  4.72491054832E-03  4.77239668879E-03  4.82036007290E-03
  4.86880549704E-03  4.91773780579E-03  4.96716189241E-03  5.01708269936E-03
  5.06750521877E-03  5.11843449292E-03  5.16987561478E-03  5.22183372851E-03
  5.27431402997E-03  5.32732176723E-03  5.38086224110E-03  5.43494080568E-03
  5.48956286887E-03  5.54473389292E-03  5.60045939498E-03  5.65674494765E-03
  5.71359617952E-03  5.77101877578E-03  5.82901847872E-03  5.88760108837E-03
  5.94677246303E-03  6.00653851990E-03  6.06690523562E-03  6.12787864692E-03
  6.18946485119E-03  6.25167000711E-03  6.31450033524E-03  6.37796211866E-03
  6.44206170361E-03  6.50680550010E-03  6.57219998256E-03  6.63825169049E-03
  6.70496722913E-03  6.77235327007E-03  6.84041655199E-03  6.90916388126E-03
  6.97860213268E-03  7.04873825013E-03  7.11957924728E-03  7.19113220828E-03
  7.26340428850E-03  7.33640271520E-03  7.41013478828E-03  7.48460788102E-03
  7.55982944078E-03  7.63580698979E-03  7.71254812586E-03  7.79006052317E-03
  7.86835193303E-03  7.94743018463E-03  8.02730318587E-03  8.10797892413E-03
  8.18946546703E-03  8.27177096330E-03  8.35490364357E-03  8.43887182116E-03
  8.52368389296E-03  8.60934834026E-03  8.69587372956E-03  8.78326871349E-03
  8.87154203160E-03  8.96070251132E-03  9.05075906875E-03  9.14172070963E-03
  9.23359653019E-03  9.32639571811E-03  9.42012755337E-03  9.51480140924E-03
  9.61042675317E-03  9.70701314779E-03  9.80457025181E-03  9.90310782103E-03
  1.00026357093E-02  1.01031638694E-02  1.02047023544E-02  1.03072613181E-02
  1.04108510165E-02  1.05154818088E-02  1.06211641579E-02  1.07279086323E-02
  1.08357259065E-02  1.09446267624E-02  1.10546220900E-02  1.11657228891E-02
  1.12779402697E-02  1.13912854538E-02  1.15057697759E-02  1.16214046846E-02
  1.17382017434E-02  1.18561726322E-02  1.19753291481E-02  1.20956832070E-02
  1.22172468442E-02  1.23400322163E-02  1.24640516019E-02  1.25893174030E-02
  1.27158421464E-02  1.28436384846E-02  1.29727191973E-02  1.31030971928E-02
  1.32347855089E-02  1.33677973146E-02  1.35021459112E-02  1.36378447336E-02
  1.37749073518E-02  1.39133474723E-02  1.40531789390E-02  1.41944157355E-02
  1.43370719853E-02  1.44811619542E-02  1.46267000514E-02  1.47737008308E-02
  1.49221789926E-02  1.50721493848E-02  1.52236270044E-02  1.53766269994E-02
  1.55311646700E-02  1.56872554699E-02  1.58449150085E-02  1.60041590517E-02
  1.61650035242E-02  1.63274645106E-02  1.64915582570E-02  1.66573011729E-02
  1.68247098329E-02  1.69938009779E-02  1.71645915171E-02  1.73370985298E-02
  1.75113392667E-02  1.76873311522E-02  1.78650917856E-02  1.80446389430E-02
  1.82259905794E-02  1.84091648299E-02  1.85941800124E-02  1.87810546283E-02
  1.89698073653E-02  1.91604570989E-02  1.93530228941E-02  1.95475240078E-02
  1.97439798902E-02  1.99424101870E-02  2.01428347414E-02  2.03452735961E-02
  2.05497469951E-02  2.07562753860E-02  2.09648794216E-02  2.11755799627E-02
  2.13883980795E-02  2.16033550538E-02  2.18204723817E-02  2.20397717750E-02
  2.22612751638E-02  2.24850046987E-02  2.27109827528E-02  2.29392319241E-02
  2.31697750378E-02  2.34026351482E-02  2.36378355416E-02  2.38753997383E-02
  2.41153514949E-02  2.43577148067E-02  2.46025139103E-02  2.48497732858E-02
  2.50995176594E-02  2.53517720056E-02  2.56065615501E-02  2.58639117721E-02
  2.61238484069E-02  2.63863974483E-02  2.66515851514E-02  2.69194380352E-02
  2.71899828853E-02  2.74632467563E-02  2.77392569748E-02  2.80180411422E-02
  2.82996271371E-02  2.85840431182E-02  2.88713175275E-02  2.91614790926E-02
  2.94545568299E-02  2.97505800474E-02  3.00495783478E-02  3.03515816310E-02
  3.06566200976E-02  3.09647242518E-02  3.12759249043E-02  3.15902531753E-02
  3.19077404979E-02  3.22284186212E-02  3.25523196132E-02  3.28794758643E-02
  3.32099200904E-02  3.35436853361E-02  3.38808049784E-02  3.42213127294E-02
  3.45652426401E-02  3.49126291040E-02  3.52635068598E-02  3.56179109957E-02
  3.59758769524E-02  3.63374405268E-02  3.67026378755E-02  3.70715055186E-02
  3.74440803431E-02  3.78203996069E-02  3.82005009421E-02  3.85844223593E-02
  3.89722022508E-02  3.93638793951E-02  3.97594929601E-02  4.01590825075E-02
  4.05626879967E-02  4.09703497884E-02  4.13821086493E-02  4.17980057555E-02
  4.22180826971E-02  4.26423814822E-02  4.30709445410E-02  4.35038147301E-02
  4.39410353369E-02  4.43826500839E-02  4.48287031329E-02  4.52792390895E-02
  4.57343030078E-02  4.61939403945E-02  4.66581972138E-02  4.71271198916E-02
  4.76007553207E-02  4.80791508650E-02  4.85623543645E-02  4.90504141399E-02
  4.95433789975E-02  5.00412982344E-02  5.05442216427E-02  5.10521995154E-02
  5.15652826505E-02  5.20835223569E-02  5.26069704589E-02  5.31356793018E-02
  5.36697017569E-02  5.42090912269E-02  5.47539016513E-02  5.53041875114E-02
  5.58600038363E-02  5.64214062082E-02  5.69884507677E-02  5.75611942198E-02
  5.81396938393E-02  5.87240074766E-02  5.93141935636E-02  5.99103111193E-02
  6.05124197561E-02  6.11205796854E-02  6.17348517235E-02  6.23552972982E-02
  6.29819784546E-02  6.36149578614E-02  6.42542988170E-02  6.49000652560E-02
  6.55523217555E-02  6.62111335419E-02  6.68765664969E-02  6.75486871642E-02
  6.82275627565E-02  6.89132611619E-02  6.96058509509E-02  7.03054013830E-02
  7.10119824139E-02  7.17256647021E-02  7.24465196166E-02  7.31746192434E-02
  7.39100363931E-02  7.46528446080E-02  7.54031181697E-02  7.61609321059E-02
  7.69263621989E-02  7.76994849922E-02  7.84803777987E-02  7.92691187084E-02
  8.00657865960E-02  8.08704611290E-02  8.16832227756E-02  8.25041528124E-02
  8.33333333333E-02  8.41708472570E-02  8.50167783356E-02  8.58712111628E-02
  8.67342311827E-02  8.76059246980E-02  8.84863788788E-02  8.93756817712E-02
  9.02739223062E-02  9.11811903088E-02  9.20975765063E-02  9.30231725382E-02
  9.39580709649E-02  9.49023652771E-02  9.58561499048E-02  9.68195202274E-02
  9.77925725827E-02  9.87754042767E-02  9.97681135935E-02  1.00770799805E-01
  1.01783563180E-01  1.02806504996E-01  1.03839727549E-01  1.04883334161E-01
  1.05937429193E-01  1.07002118057E-01  1.08077507222E-01  1.09163704228E-01
  1.10260817695E-01  1.11368957335E-01  1.12488233965E-01  1.13618759511E-01
  1.14760647028E-01  1.15914010705E-01  1.17078965880E-01  1.18255629049E-01
  1.19444117880E-01  1.20644551222E-01  1.21857049120E-01  1.23081732824E-01
  1.24318724803E-01  1.25568148759E-01  1.26830129635E-01  1.28104793629E-01
  1.29392268209E-01  1.30692682124E-01  1.32006165416E-01  1.33332849435E-01
  1.34672866849E-01  1.36026351663E-01  1.37393439225E-01  1.38774266245E-01
  1.40168970808E-01  1.41577692385E-01  1.43000571849E-01  1.44437751489E-01
  1.45889375025E-01  1.47355587619E-01  1.48836535896E-01  1.50332367950E-01
  1.51843233366E-01  1.53369283232E-01  1.54910670154E-01  1.56467548272E-01
  1.58040073275E-01  1.59628402418E-01  1.61232694534E-01  1.62853110053E-01
  1.64489811019E-01  1.66142961104E-01  1.67812725623E-01  1.69499271554E-01
  1.71202767554E-01  1.72923383973E-01  1.74661292875E-01  1.76416668051E-01
  1.78189685041E-01  1.79980521149E-01  1.81789355458E-01  1.83616368855E-01
  1.85461744041E-01  1.87325665556E-01  1.89208319794E-01  1.91109895022E-01
  1.93030581398E-01  1.94970570994E-01  1.96930057809E-01  1.98909237794E-01
  2.00908308868E-01  2.02927470941E-01  2.04966925930E-01  2.07026877782E-01
  2.09107532495E-01  2.11209098135E-01  2.13331784861E-01  2.15475804943E-01
  2.17641372785E-01  2.19828704946E-01  2.22038020161E-01  2.24269539362E-01
  2.26523485705E-01  2.28800084585E-01  2.31099563664E-01  2.33422152892E-01
  2.35768084529E-01  2.38137593172E-01  2.40530915772E-01  2.42948291665E-01
  2.45389962589E-01  2.47856172714E-01  2.50347168662E-01  2.52863199536E-01
  2.55404516941E-01  2.57971375010E-01  2.60564030432E-01  2.63182742474E-01
  2.65827773010E-01  2.68499386544E-01  2.71197850241E-01  2.73923433949E-01
  2.76676410228E-01  2.79457054379E-01  2.82265644468E-01  2.85102461357E-01
  2.87967788730E-01  2.90861913122E-01  2.93785123947E-01  2.96737713530E-01
  2.99719977131E-01  3.02732212979E-01  3.05774722302E-01  3.08847809351E-01
  3.11951781438E-01  3.15086948964E-01  3.18253625447E-01  3.21452127558E-01
  3.24682775150E-01  3.27945891289E-01  3.31241802291E-01  3.34570837750E-01
  3.37933330570E-01  3.41329617006E-01  3.44760036688E-01  3.48224932660E-01
  3.51724651416E-01  3.55259542931E-01  3.58829960695E-01  3.62436261755E-01
  3.66078806743E-01  3.69757959917E-01  3.73474089195E-01  3.77227566193E-01
  3.81018766262E-01  3.84848068525E-01  3.88715855916E-01  3.92622515216E-01
  3.96568437095E-01  4.00554016148E-01  4.04579650936E-01  4.08645744027E-01
  4.12752702033E-01  4.16900935653E-01  4.21090859714E-01  4.25322893211E-01
  4.29597459353E-01  4.33914985598E-01  4.38275903704E-01  4.42680649765E-01
  4.47129664260E-01  4.51623392094E-01  4.56162282644E-01  4.60746789802E-01
  4.65377372023E-01  4.70054492369E-01  4.74778618556E-01  4.79550223000E-01
  4.84369782867E-01  4.89237780115E-01  4.94154701549E-01  4.99121038865E-01
  5.04137288701E-01  5.09203952686E-01  5.14321537490E-01  5.19490554877E-01
  5.24711521752E-01  5.29984960217E-01  5.35311397619E-01  5.40691366607E-01
  5.46125405183E-01  5.51614056754E-01  5.57157870190E-01  5.62757399878E-01
  5.68413205774E-01  5.74125853465E-01  5.79895914220E-01  5.85723965049E-01
  5.91610588763E-01  5.97556374029E-01  6.03561915430E-01  6.09627813526E-01
  6.15754674911E-01  6.21943112277E-01  6.28193744472E-01  6.34507196565E-01
  6.40884099907E-01  6.47325092192E-01  6.53830817527E-01  6.60401926487E-01
  6.67039076191E-01  6.73742930359E-01  6.80514159381E-01  6.87353440386E-01
  6.94261457307E-01  7.01238900953E-01  7.08286469074E-01  7.15404866431E-01
  7.22594804872E-01  7.29857003395E-01  7.37192188227E-01  7.44601092892E-01
  7.52084458286E-01  7.59643032753E-01  7.67277572157E-01  7.74988839957E-01
  7.82777607287E-01  7.90644653030E-01  7.98590763897E-01  8.06616734506E-01
  8.14723367461E-01  8.22911473431E-01  8.31181871235E-01  8.39535387918E-01
  8.47972858839E-01  8.56495127754E-01  8.65103046894E-01  8.73797477061E-01
  8.82579287703E-01  8.91449357009E-01  9.00408571994E-01  9.09457828587E-01
  9.18598031720E-01  9.27830095422E-01  9.37154942907E-01  9.46573506667E-01
  9.56086728566E-01  9.65695559935E-01  9.75400961665E-01  9.85203904304E-01
  9.95105368154E-01  1.00510634337E+00  1.01520783006E+00  1.02541083838E+00
  1.03571638863E+00  1.04612551139E+00  1.05663924757E+00  1.06725864856E+00
  1.07798477630E+00  1.08881870341E+00  1.09976151330E+00  1.11081430027E+00
  1.12197816958E+00  1.13325423765E+00  1.14464363209E+00  1.15614749184E+00
  1.16776696731E+00  1.17950322045E+00  1.19135742489E+00  1.20333076607E+00
  1.21542444132E+00  1.22763966004E+00  1.23997764374E+00  1.25243962624E+00
  1.26502685375E+00  1.27774058499E+00  1.29058209136E+00  1.30355265702E+00
  1.31665357902E+00  1.32988616748E+00  1.34325174567E+00  1.35675165015E+00
  1.37038723092E+00  1.38415985157E+00  1.39807088934E+00  1.41212173538E+00
  1.42631379476E+00  1.44064848671E+00  1.45512724471E+00  1.46975151665E+00
  1.48452276497E+00  1.49944246680E+00  1.51451211412E+00  1.52973321392E+00
  1.54510728831E+00  1.56063587472E+00  1.57632052602E+00  1.59216281069E+00
  1.60816431296E+00  1.62432663300E+00  1.64065138706E+00  1.65714020763E+00
  1.67379474360E+00  1.69061666044E+00  1.70760764035E+00  1.72476938245E+00
  1.74210360292E+00  1.75961203521E+00  1.77729643017E+00  1.79515855625E+00
  1.81320019968E+00  1.83142316465E+00  1.84982927345E+00  1.86842036673E+00
  1.88719830360E+00  1.90616496187E+00  1.92532223823E+00  1.94467204841E+00
  1.96421632742E+00  1.98395702970E+00  2.00389612934E+00  2.02403562026E+00
  2.04437751643E+00  2.06492385205E+00  2.08567668178E+00  2.10663808091E+00
  2.12781014561E+00  2.14919499310E+00  2.17079476188E+00  2.19261161194E+00
  2.21464772499E+00  2.23690530466E+00  2.25938657672E+00  2.28209378933E+00
  2.30502921321E+00  2.32819514194E+00  2.35159389212E+00  2.37522780365E+00
  2.39909923994E+00  2.42321058815E+00  2.44756425944E+00  2.47216268920E+00
  2.49700833728E+00  2.52210368828E+00  2.54745125175E+00  2.57305356247E+00
  2.59891318069E+00  2.62503269240E+00  2.65141470956E+00  2.67806187040E+00
  2.70497683966E+00  2.73216230885E+00  2.75962099656E+00  2.78735564866E+00
  2.81536903865E+00  2.84366396790E+00  2.87224326590E+00  2.90110979063E+00
  2.93026642876E+00  2.95971609597E+00  2.98946173726E+00  3.01950632721E+00
  3.04985287031E+00  3.08050440124E+00  3.11146398517E+00  3.14273471810E+00
  3.17431972712E+00  3.20622217075E+00  3.23844523928E+00  3.27099215503E+00
  3.30386617271E+00  3.33707057977E+00  3.37060869667E+00  3.40448387725E+00
  3.43869950905E+00  3.47325901367E+00  3.50816584708E+00  3.54342350001E+00
  3.57903549823E+00  3.61500540299E+00  3.65133681130E+00  3.68803335633E+00
  3.72509870778E+00  3.76253657219E+00  3.80035069340E+00  3.83854485285E+00
  3.87712286998E+00  3.91608860263E+00  3.95544594740E+00  3.99519884007E+00
  4.03535125595E+00  4.07590721031E+00  4.11687075879E+00  4.15824599778E+00
  4.20003706484E+00  4.24224813910E+00  4.28488344171E+00  4.32794723624E+00
  4.37144382909E+00  4.41537756997E+00  4.45975285229E+00  4.50457411361E+00
  4.54984583610E+00  4.59557254696E+00  4.64175881890E+00  4.68840927059E+00
  4.73552856712E+00  4.78312142045E+00  4.83119258991E+00  4.87974688266E+00
  4.92878915416E+00  4.97832430868E+00  5.02835729978E+00  5.07889313080E+00
  5.12993685537E+00  5.18149357790E+00  5.23356845410E+00  5.28616669151E+00
  5.33929354999E+00  5.39295434228E+00  5.44715443450E+00  5.50189924670E+00
  5.55719425341E+00  5.61304498418E+00  5.66945702412E+00  5.72643601449E+00
  5.78398765323E+00  5.84211769556E+00  5.90083195452E+00  5.96013630160E+00
  6.02003666728E+00  6.08053904164E+00  6.14164947497E+00  6.20337407836E+00
  6.26571902434E+00  6.32869054743E+00  6.39229494486E+00  6.45653857711E+00
  6.52142786859E+00  6.58696930830E+00  6.65316945042E+00  6.72003491504E+00
  6.78757238875E+00  6.85578862535E+00  6.92469044653E+00  6.99428474252E+00
  7.06457847282E+00  7.13557866685E+00  7.20729242469E+00  7.27972691779E+00
  7.35288938964E+00  7.42678715655E+00  7.50142760838E+00  7.57681820921E+00
  7.65296649818E+00  7.72988009018E+00  7.80756667662E+00  7.88603402624E+00
  7.96528998584E+00  8.04534248107E+00  8.12619951725E+00  8.20786918016E+00
  8.29035963683E+00  8.37367913637E+00  8.45783601080E+00  8.54283867587E+00
  8.62869563194E+00  8.71541546476E+00  8.80300684639E+00  8.89147853604E+00
  8.98083938095E+00  9.07109831728E+00  9.16226437101E+00  9.25434665881E+00
  9.34735438898E+00  9.44129686239E+00  9.53618347335E+00  9.63202371060E+00
  9.72882715825E+00  9.82660349672E+00  9.92536250373E+00  1.00251140553E+01
  1.01258681266E+01  1.02276347931E+01  1.03304242317E+01  1.04342467212E+01
  1.05391126442E+01  1.06450324872E+01  1.07520168423E+01  1.08600764080E+01
  1.09692219905E+01  1.10794645043E+01  1.11908149737E+01  1.13032845340E+01
  1.14168844322E+01  1.15316260283E+01  1.16475207967E+01  1.17645803268E+01
  1.18828163247E+01  1.20022406142E+01  1.21228651378E+01  1.22447019580E+01
  1.23677632585E+01  1.24920613458E+01  1.26176086495E+01  1.27444177246E+01
  1.28725012522E+01  1.30018720405E+01  1.31325430269E+01  1.32645272786E+01
  1.33978379941E+01  1.35324885045E+01  1.36684922750E+01  1.38058629061E+01
  1.39446141351E+01  1.40847598371E+01  1.42263140268E+01  1.43692908597E+01
  1.45137046338E+01  1.46595697903E+01  1.48069009161E+01  1.49557127443E+01
  1.51060201563E+01  1.52578381828E+01  1.54111820059E+01  1.55660669600E+01
  1.57225085338E+01  1.58805223716E+01  1.60401242748E+01  1.62013302038E+01
  1.63641562793E+01  1.65286187841E+01  1.66947341646E+01  1.68625190323E+01
  1.70319901661E+01  1.72031645130E+01  1.73760591908E+01  1.75506914889E+01
  1.77270788708E+01  1.79052389754E+01  1.80851896187E+01  1.82669487962E+01
  1.84505346837E+01  1.86359656400E+01  1.88232602085E+01  1.90124371187E+01
  1.92035152884E+01  1.93965138256E+01  1.95914520304E+01  1.97883493968E+01
  1.99872256145E+01  2.01881005715E+01  2.03909943554E+01  2.05959272556E+01
  2.08029197658E+01  2.10119925853E+01  2.12231666215E+01  2.14364629921E+01
  2.16519030269E+01  2.18695082700E+01  2.20893004822E+01  2.23113016428E+01
  2.25355339522E+01  2.27620198337E+01  2.29907819362E+01  2.32218431361E+01
  2.34552265396E+01  2.36909554853E+01  2.39290535463E+01  2.41695445326E+01
  2.44124524935E+01  2.46578017200E+01  2.49056167473E+01  2.51559223569E+01
  2.54087435797E+01  2.56641056981E+01  2.59220342484E+01  2.61825550238E+01
  2.64456940765E+01  2.67114777206E+01  2.69799325348E+01  2.72510853647E+01
  2.75249633258E+01  2.78015938062E+01  2.80810044692E+01  2.83632232560E+01
  2.86482783887E+01  2.89361983732E+01  2.92270120017E+01  2.95207483556E+01
  2.98174368091E+01  3.01171070310E+01  3.04197889888E+01  3.07255129508E+01
  3.10343094897E+01  3.13462094854E+01  3.16612441282E+01  3.19794449218E+01
  3.23008436865E+01  3.26254725625E+01  3.29533640129E+01  3.32845508273E+01
  3.36190661244E+01  3.39569433562E+01  3.42982163106E+01  3.46429191152E+01
  3.49910862406E+01  3.53427525037E+01  3.56979530716E+01  3.60567234645E+01
  3.64190995599E+01  3.67851175955E+01  3.71548141735E+01  3.75282262640E+01
  3.79053912083E+01  3.82863467233E+01  3.86711309049E+01  3.90597822319E+01
  3.94523395696E+01  3.98488421741E+01  4.02493296961E+01  4.06538421845E+01
  4.10624200911E+01  4.14751042739E+01  4.18919360017E+01  4.23129569580E+01
  4.27382092452E+01  4.31677353890E+01  4.36015783423E+01  4.40397814898E+01
  4.44823886521E+01  4.49294440904E+01  4.53809925105E+01  4.58370790677E+01
  4.62977493710E+01  4.67630494877E+01  4.72330259485E+01  4.77077257511E+01
  4.81871963661E+01  4.86714857409E+01  4.91606423049E+01  4.96547149740E+01
  5.01537531560E+01  5.06578067551E+01  5.11669261771E+01  5.16811623344E+01
  5.22005666510E+01  5.27251910677E+01  5.32550880475E+01  5.37903105804E+01
  5.43309121893E+01  5.48769469346E+01  5.54284694204E+01  5.59855347993E+01
  5.65481987783E+01  5.71165176243E+01  5.76905481697E+01  5.82703478180E+01
  5.88559745496E+01  5.94474869277E+01  6.00449441041E+01  6.06484058249E+01
  6.12579324368E+01  6.18735848931E+01  6.24954247593E+01  6.31235142202E+01
  6.37579160850E+01  6.43986937946E+01  6.50459114272E+01  6.56996337052E+01
  6.63599260013E+01  6.70268543453E+01  6.77004854306E+01  6.83808866209E+01
  6.90681259568E+01  6.97622721628E+01  7.04633946543E+01  7.11715635438E+01
  7.18868496491E+01  7.26093244992E+01  7.33390603423E+01  7.40761301526E+01