<PP_INFO>
Generated using Fritz-Haber code                                                
Author: unknown    Generation date: as well                                     
Info: automatically converted from FHI format                                   
    1        The Pseudo was generated with a Scalar-Relativistic Calculation
nl pn  l   occ               Rcut            Rcut US             E pseu
2s  0  0  2.00      0.00000000000      0.00000000000      0.00000000000
2p  0  1  5.00      0.00000000000      0.00000000000      0.00000000000
</PP_INFO>


<PP_HEADER>
   0                   Version Number
  Ne                   Element
   NC                  Norm - Conserving pseudopotential
    F                  Nonlinear Core Correction
SLA  PW   PBE  PBE     PBE  Exchange-Correlation functional
    8.00000000000      Z valence
    0.00000000000      Total energy
  0.0000000  0.0000000 Suggested cutoff for wfc and rho
    0                  Max angular momentum component
  481                  Number of points in mesh
    2    1             Number of Wavefunctions, Number of Projectors
 Wavefunctions         nl  l   occ
                       2s  0  2.00
                       2p  1  5.00
</PP_HEADER>


<PP_MESH>
  <PP_R>
  6.25000000000E-04  6.40437500000E-04  6.56256306250E-04  6.72465837014E-04
  6.89075743189E-04  7.06095914045E-04  7.23536483122E-04  7.41407834255E-04
  7.59720607762E-04  7.78485706773E-04  7.97714303731E-04  8.17417847033E-04
  8.37608067854E-04  8.58296987130E-04  8.79496922713E-04  9.01220496704E-04
  9.23480642972E-04  9.46290614854E-04  9.69663993040E-04  9.93614693668E-04
  1.01815697660E-03  1.04330545392E-03  1.06907509864E-03  1.09548125357E-03
  1.12253964054E-03  1.15026636966E-03  1.17867794899E-03  1.20779129433E-03
  1.23762373930E-03  1.26819304566E-03  1.29951741389E-03  1.33161549401E-03
  1.36450639671E-03  1.39820970471E-03  1.43274548442E-03  1.46813429788E-03
  1.50439721504E-03  1.54155582625E-03  1.57963225516E-03  1.61864917186E-03
  1.65862980641E-03  1.69959796262E-03  1.74157803230E-03  1.78459500970E-03
  1.82867450644E-03  1.87384276675E-03  1.92012668309E-03  1.96755381216E-03
  2.01615239132E-03  2.06595135538E-03  2.11698035386E-03  2.16926976860E-03
  2.22285073189E-03  2.27775514496E-03  2.33401569704E-03  2.39166588476E-03
  2.45074003212E-03  2.51127331091E-03  2.57330176169E-03  2.63686231520E-03
  2.70199281439E-03  2.76873203690E-03  2.83711971821E-03  2.90719657525E-03
  2.97900433066E-03  3.05258573763E-03  3.12798460535E-03  3.20524582510E-03
  3.28441539698E-03  3.36554045729E-03  3.44866930658E-03  3.53385143845E-03
  3.62113756898E-03  3.71057966694E-03  3.80223098471E-03  3.89614609003E-03
  3.99238089846E-03  4.09099270665E-03  4.19204022650E-03  4.29558362010E-03
  4.40168453552E-03  4.51040614354E-03  4.62181317529E-03  4.73597196072E-03
  4.85295046815E-03  4.97281834471E-03  5.09564695783E-03  5.22150943768E-03
  5.35048072079E-03  5.48263759460E-03  5.61805874318E-03  5.75682479414E-03
  5.89901836656E-03  6.04472412021E-03  6.19402880598E-03  6.34702131749E-03
  6.50379274403E-03  6.66443642481E-03  6.82904800450E-03  6.99772549021E-03
  7.17056930982E-03  7.34768237177E-03  7.52917012635E-03  7.71514062848E-03
  7.90570460200E-03  8.10097550567E-03  8.30106960066E-03  8.50610601979E-03
  8.71620683848E-03  8.93149714739E-03  9.15210512693E-03  9.37816212357E-03
  9.60980272802E-03  9.84716485540E-03  1.00903898273E-02  1.03396224561E-02
  1.05950111307E-02  1.08567079057E-02  1.11248685909E-02  1.13996528451E-02
  1.16812242704E-02  1.19697505099E-02  1.22654033475E-02  1.25683588102E-02
  1.28787972728E-02  1.31969035654E-02  1.35228670835E-02  1.38568819004E-02
  1.41991468834E-02  1.45498658114E-02  1.49092474969E-02  1.52775059101E-02
  1.56548603061E-02  1.60415353556E-02  1.64377612789E-02  1.68437739825E-02
  1.72598151999E-02  1.76861326353E-02  1.81229801114E-02  1.85706177202E-02
  1.90293119779E-02  1.94993359837E-02  1.99809695825E-02  2.04744995312E-02
  2.09802196696E-02  2.14984310955E-02  2.20294423435E-02  2.25735695694E-02
  2.31311367378E-02  2.37024758152E-02  2.42879269678E-02  2.48878387639E-02
  2.55025683814E-02  2.61324818204E-02  2.67779541214E-02  2.74393695882E-02
  2.81171220170E-02  2.88116149308E-02  2.95232618196E-02  3.02524863866E-02
  3.09997228003E-02  3.17654159535E-02  3.25500217275E-02  3.33540072642E-02
  3.41778512436E-02  3.50220441693E-02  3.58870886603E-02  3.67734997502E-02
  3.76818051941E-02  3.86125457824E-02  3.95662756632E-02  4.05435626721E-02
  4.15449886701E-02  4.25711498902E-02  4.36226572925E-02  4.47001369276E-02
  4.58042303097E-02  4.69355947984E-02  4.80949039899E-02  4.92828481185E-02
  5.05001344670E-02  5.17474877883E-02  5.30256507367E-02  5.43353843099E-02
  5.56774683024E-02  5.70527017694E-02  5.84619035031E-02  5.99059125197E-02
  6.13855885589E-02  6.29018125963E-02  6.44554873674E-02  6.60475379054E-02
  6.76789120917E-02  6.93505812203E-02  7.10635405765E-02  7.28188100287E-02
  7.46174346364E-02  7.64604852719E-02  7.83490592582E-02  8.02842810218E-02
  8.22673027631E-02  8.42993051413E-02  8.63814979783E-02  8.85151209784E-02
  9.07014444665E-02  9.29417701449E-02  9.52374318674E-02  9.75897964346E-02
  1.00000264407E-01  1.02470270937E-01  1.05001286629E-01  1.07594818409E-01
  1.10252410424E-01  1.12975644961E-01  1.15766143392E-01  1.18625567134E-01
  1.21555618642E-01  1.24558042422E-01  1.27634626070E-01  1.30787201334E-01
  1.34017645207E-01  1.37327881044E-01  1.40719879706E-01  1.44195660734E-01
  1.47757293554E-01  1.51406898705E-01  1.55146649103E-01  1.58978771336E-01
  1.62905546988E-01  1.66929313999E-01  1.71052468054E-01  1.75277464015E-01
  1.79606817377E-01  1.84043105766E-01  1.88588970478E-01  1.93247118049E-01
  1.98020321865E-01  2.02911423815E-01  2.07923335983E-01  2.13059042382E-01
  2.18321600729E-01  2.23714144267E-01  2.29239883630E-01  2.34902108756E-01
  2.40704190842E-01  2.46649584356E-01  2.52741829089E-01  2.58984552268E-01
  2.65381470709E-01  2.71936393035E-01  2.78653221943E-01  2.85535956525E-01
  2.92588694652E-01  2.99815635409E-01  3.07221081604E-01  3.14809442320E-01
  3.22585235545E-01  3.30553090863E-01  3.38717752207E-01  3.47084080687E-01
  3.55657057480E-01  3.64441786800E-01  3.73443498933E-01  3.82667553357E-01
  3.92119441925E-01  4.01804792141E-01  4.11729370506E-01  4.21899085958E-01
  4.32319993381E-01  4.42998297218E-01  4.53940355159E-01  4.65152681931E-01
  4.76641953175E-01  4.88415009418E-01  5.00478860151E-01  5.12840687997E-01
  5.25507852990E-01  5.38487896959E-01  5.51788548014E-01  5.65417725150E-01
  5.79383542961E-01  5.93694316472E-01  6.08358566089E-01  6.23385022672E-01
  6.38782632732E-01  6.54560563760E-01  6.70728209685E-01  6.87295196464E-01
  7.04271387817E-01  7.21666891096E-01  7.39492063306E-01  7.57757517270E-01
  7.76474127946E-01  7.95653038907E-01  8.15305668968E-01  8.35443718991E-01
  8.56079178850E-01  8.77224334568E-01  8.98891775632E-01  9.21094402490E-01
  9.43845434231E-01  9.67158416457E-01  9.91047229343E-01  1.01552609591E+00
  1.04060959048E+00  1.06631264736E+00  1.09265056975E+00  1.11963903882E+00
  1.14729412308E+00  1.17563228792E+00  1.20467040544E+00  1.23442576445E+00
  1.26491608083E+00  1.29615950803E+00  1.32817464788E+00  1.36098056168E+00
  1.39459678155E+00  1.42904332206E+00  1.46434069211E+00  1.50050990721E+00
  1.53757250191E+00  1.57555054271E+00  1.61446664112E+00  1.65434396715E+00
  1.69520626314E+00  1.73707785784E+00  1.77998368093E+00  1.82394927785E+00
  1.86900082501E+00  1.91516514539E+00  1.96246972448E+00  2.01094272667E+00
  2.06061301202E+00  2.11151015342E+00  2.16366445421E+00  2.21710696623E+00
  2.27186950829E+00  2.32798468515E+00  2.38548590687E+00  2.44440740877E+00
  2.50478427177E+00  2.56665244328E+00  2.63004875863E+00  2.69501096297E+00
  2.76157773375E+00  2.82978870378E+00  2.89968448476E+00  2.97130669153E+00
  3.04469796682E+00  3.11990200660E+00  3.19696358616E+00  3.27592858674E+00
  3.35684402283E+00  3.43975807019E+00  3.52472009453E+00  3.61178068086E+00
  3.70099166368E+00  3.79240615777E+00  3.88607858987E+00  3.98206473104E+00
  4.08042172990E+00  4.18120814662E+00  4.28448398785E+00  4.39031074235E+00
  4.49875141768E+00  4.60987057770E+00  4.72373438097E+00  4.84041062018E+00
  4.95996876250E+00  5.08247999093E+00  5.20801724671E+00  5.33665527270E+00
  5.46847065793E+00  5.60354188319E+00  5.74194936770E+00  5.88377551708E+00
  6.02910477235E+00  6.17802366023E+00  6.33062084464E+00  6.48698717950E+00
  6.64721576284E+00  6.81140199218E+00  6.97964362138E+00  7.15204081883E+00
  7.32869622706E+00  7.50971502387E+00  7.69520498496E+00  7.88527654808E+00
  8.08004287882E+00  8.27961993793E+00  8.48412655040E+00  8.69368447619E+00
  8.90841848275E+00  9.12845641928E+00  9.35392929283E+00  9.58497134636E+00
  9.82172013862E+00  1.00643166260E+01  1.03129052467E+01  1.05676340063E+01
  1.08286545663E+01  1.10961223340E+01  1.13701965557E+01  1.16510404106E+01
  1.19388211088E+01  1.22337099901E+01  1.25358826269E+01  1.28455189278E+01
  1.31628032453E+01  1.34879244855E+01  1.38210762203E+01  1.41624568029E+01
  1.45122694859E+01  1.48707225422E+01  1.52380293890E+01  1.56144087149E+01
  1.60000846102E+01  1.63952867001E+01  1.68002502816E+01  1.72152164635E+01
  1.76404323102E+01  1.80761509882E+01  1.85226319176E+01  1.89801409260E+01
  1.94489504069E+01  1.99293394819E+01  2.04215941671E+01  2.09260075430E+01
  2.14428799294E+01  2.19725190636E+01  2.25152402845E+01  2.30713667195E+01
  2.36412294775E+01  2.42251678456E+01  2.48235294914E+01  2.54366706698E+01
  2.60649564353E+01  2.67087608593E+01  2.73684672525E+01  2.80444683937E+01
  2.87371667630E+01  2.94469747820E+01  3.01743150591E+01  3.09196206411E+01
  3.16833352709E+01  3.24659136521E+01  3.32678217193E+01  3.40895369158E+01
  3.49315484776E+01  3.57943577250E+01  3.66784783608E+01  3.75844367763E+01
  3.85127723647E+01  3.94640378421E+01  4.04387995768E+01  4.14376379264E+01
  4.24611475832E+01  4.35099379285E+01  4.45846333953E+01  4.56858738402E+01
  4.68143149240E+01  4.79706285026E+01  4.91555030267E+01  5.03696439514E+01
  5.16137741570E+01  5.28886343787E+01  5.41949836478E+01  5.55335997439E+01
  5.69052796576E+01  5.83108400652E+01  5.97511178148E+01  6.12269704248E+01
  6.27392765943E+01  6.42889367262E+01  6.58768734633E+01  6.75040322378E+01
  6.91713818341E+01  7.08799149654E+01  7.26306488651E+01  7.44246258920E+01
  7.62629141516E+01
  </PP_R>
  <PP_RAB>
  1.52499292647E-05  1.56266025175E-05  1.60125795997E-05  1.64080903158E-05
  1.68133701466E-05  1.72286603893E-05  1.76542083009E-05  1.80902672459E-05
  1.85370968469E-05  1.89949631390E-05  1.94641387285E-05  1.99449029551E-05
  2.04375420581E-05  2.09423493470E-05  2.14596253758E-05  2.19896781226E-05
  2.25328231722E-05  2.30893839046E-05  2.36596916870E-05  2.42440860717E-05
  2.48429149977E-05  2.54565349981E-05  2.60853114126E-05  2.67296186045E-05
  2.73898401840E-05  2.80663692365E-05  2.87596085567E-05  2.94699708880E-05
  3.01978791690E-05  3.09437667844E-05  3.17080778240E-05  3.24912673463E-05
  3.32938016497E-05  3.41161585505E-05  3.49588276667E-05  3.58223107100E-05
  3.67071217846E-05  3.76137876927E-05  3.85428482487E-05  3.94948566004E-05
  4.04703795584E-05  4.14699979335E-05  4.24943068825E-05  4.35439162625E-05
  4.46194509942E-05  4.57215514337E-05  4.68508737541E-05  4.80080903359E-05
  4.91938901672E-05  5.04089792543E-05  5.16540810419E-05  5.29299368436E-05
  5.42373062836E-05  5.55769677489E-05  5.69497188522E-05  5.83563769079E-05
  5.97977794175E-05  6.12747845691E-05  6.27882717480E-05  6.43391420602E-05
  6.59283188691E-05  6.75567483451E-05  6.92254000292E-05  7.09352674100E-05
  7.26873685150E-05  7.44827465173E-05  7.63224703563E-05  7.82076353741E-05
  8.01393639678E-05  8.21188062578E-05  8.41471407724E-05  8.62255751495E-05
  8.83553468557E-05  9.05377239230E-05  9.27740057039E-05  9.50655236448E-05
  9.74136420788E-05  9.98197590382E-05  1.02285307086E-04  1.04811754171E-04
  1.07400604499E-04  1.10053399431E-04  1.12771718397E-04  1.15557179841E-04
  1.18411442183E-04  1.21336204805E-04  1.24333209064E-04  1.27404239328E-04
  1.30551124039E-04  1.33775736803E-04  1.37079997502E-04  1.40465873440E-04
  1.43935380514E-04  1.47490584413E-04  1.51133601848E-04  1.54866601813E-04
  1.58691806878E-04  1.62611494508E-04  1.66627998422E-04  1.70743709983E-04
  1.74961079620E-04  1.79282618287E-04  1.83710898958E-04  1.88248558162E-04
  1.92898297549E-04  1.97662885499E-04  2.02545158770E-04  2.07548024192E-04
  2.12674460390E-04  2.17927519561E-04  2.23310329294E-04  2.28826094428E-04
  2.34478098960E-04  2.40269708005E-04  2.46204369792E-04  2.52285617726E-04
  2.58517072484E-04  2.64902444174E-04  2.71445534545E-04  2.78150239249E-04
  2.85020550158E-04  2.92060557747E-04  2.99274453523E-04  3.06666532525E-04
  3.14241195879E-04  3.22002953417E-04  3.29956426366E-04  3.38106350098E-04
  3.46457576945E-04  3.55015079096E-04  3.63783951549E-04  3.72769415153E-04
  3.81976819707E-04  3.91411647154E-04  4.01079514838E-04  4.10986178855E-04
  4.21137537472E-04  4.31539634648E-04  4.42198663624E-04  4.53120970615E-04
  4.64313058590E-04  4.75781591137E-04  4.87533396438E-04  4.99575471330E-04
  5.11914985472E-04  5.24559285613E-04  5.37515899967E-04  5.50792542697E-04
  5.64397118501E-04  5.78337727328E-04  5.92622669193E-04  6.07260449122E-04
  6.22259782216E-04  6.37629598836E-04  6.53379049928E-04  6.69517512461E-04
  6.86054595019E-04  7.03000143516E-04  7.20364247060E-04  7.38157243963E-04
  7.56389727889E-04  7.75072554168E-04  7.94216846255E-04  8.13834002358E-04
  8.33935702216E-04  8.54533914061E-04  8.75640901738E-04  8.97269232011E-04
  9.19431782042E-04  9.42141747058E-04  9.65412648211E-04  9.89258340621E-04
  1.01369302163E-03  1.03873123927E-03  1.06438790088E-03  1.09067828203E-03
  1.11761803560E-03  1.14522320108E-03  1.17351021414E-03  1.20249591643E-03
  1.23219756557E-03  1.26263284544E-03  1.29381987672E-03  1.32577722767E-03
  1.35852392520E-03  1.39207946615E-03  1.42646382896E-03  1.46169748554E-03
  1.49780141343E-03  1.53479710834E-03  1.57270659692E-03  1.61155244986E-03
  1.65135779538E-03  1.69214633292E-03  1.73394234735E-03  1.77677072332E-03
  1.82065696019E-03  1.86562718711E-03  1.91170817863E-03  1.95892737064E-03
  2.00731287670E-03  2.05689350475E-03  2.10769877432E-03  2.15975893404E-03
  2.21310497971E-03  2.26776867271E-03  2.32378255893E-03  2.38117998814E-03
  2.43999513384E-03  2.50026301365E-03  2.56201951009E-03  2.62530139198E-03
  2.69014633637E-03  2.75659295087E-03  2.82468079676E-03  2.89445041244E-03
  2.96594333763E-03  3.03920213807E-03  3.11427043088E-03  3.19119291052E-03
  3.27001537541E-03  3.35078475518E-03  3.43354913864E-03  3.51835780236E-03
  3.60526124008E-03  3.69431119271E-03  3.78556067917E-03  3.87906402794E-03
  3.97487690943E-03  4.07305636910E-03  4.17366086141E-03  4.27675028469E-03
  4.38238601672E-03  4.49063095134E-03  4.60154953583E-03  4.71520780937E-03
  4.83167344226E-03  4.95101577628E-03  5.07330586596E-03  5.19861652085E-03
  5.32702234891E-03  5.45859980093E-03  5.59342721601E-03  5.73158486825E-03
  5.87315501450E-03  6.01822194335E-03  6.16687202535E-03  6.31919376438E-03
  6.47527785036E-03  6.63521721326E-03  6.79910707843E-03  6.96704502327E-03
  7.13913103534E-03  7.31546757192E-03  7.49615962094E-03  7.68131476358E-03
  7.87104323824E-03  8.06545800623E-03  8.26467481898E-03  8.46881228701E-03
  8.67799195050E-03  8.89233835167E-03  9.11197910896E-03  9.33704499295E-03
  9.56767000428E-03  9.80399145338E-03  1.00461500423E-02  1.02942899483E-02
  1.05485589101E-02  1.08091083151E-02  1.10760932905E-02  1.13496727948E-02
  1.16300097128E-02  1.19172709527E-02  1.22116275453E-02  1.25132547456E-02
  1.28223321378E-02  1.31390437416E-02  1.34635781221E-02  1.37961285017E-02
  1.41368928757E-02  1.44860741297E-02  1.48438801607E-02  1.52105240007E-02
  1.55862239435E-02  1.59712036749E-02  1.63656924057E-02  1.67699250081E-02
  1.71841421558E-02  1.76085904670E-02  1.80435226516E-02  1.84891976611E-02
  1.89458808433E-02  1.94138441001E-02  1.98933660494E-02  2.03847321908E-02
  2.08882350759E-02  2.14041744823E-02  2.19328575920E-02  2.24745991745E-02
  2.30297217741E-02  2.35985559020E-02  2.41814402327E-02  2.47787218065E-02
  2.53907562351E-02  2.60179079141E-02  2.66605502396E-02  2.73190658305E-02
  2.79938467565E-02  2.86852947714E-02  2.93938215523E-02  3.01198489446E-02
  3.08638092136E-02  3.16261453011E-02  3.24073110901E-02  3.32077716740E-02
  3.40280036343E-02  3.48684953241E-02  3.57297471586E-02  3.66122719134E-02
  3.75165950297E-02  3.84432549269E-02  3.93928033236E-02  4.03658055657E-02
  4.13628409632E-02  4.23845031350E-02  4.34314003624E-02  4.45041559514E-02
  4.56034086034E-02  4.67298127959E-02  4.78840391719E-02  4.90667749395E-02
  5.02787242805E-02  5.15206087702E-02  5.27931678068E-02  5.40971590516E-02
  5.54333588802E-02  5.68025628446E-02  5.82055861468E-02  5.96432641247E-02
  6.11164527485E-02  6.26260291314E-02  6.41728920510E-02  6.57579624846E-02
  6.73821841580E-02  6.90465241067E-02  7.07519732521E-02  7.24995469915E-02
  7.42902858022E-02  7.61252558615E-02  7.80055496812E-02  7.99322867584E-02
  8.19066142413E-02  8.39297076131E-02  8.60027713911E-02  8.81270398445E-02
  9.03037777286E-02  9.25342810385E-02  9.48198777802E-02  9.71619287613E-02
  9.95618284017E-02  1.02021005563E-01  1.04540924401E-01  1.07123085233E-01
  1.09769025439E-01  1.12480320367E-01  1.15258584280E-01  1.18105471312E-01
  1.21022676453E-01  1.24011936562E-01  1.27075031395E-01  1.30213784670E-01
  1.33430065151E-01  1.36725787761E-01  1.40102914718E-01  1.43563456712E-01
  1.47109474093E-01  1.50743078103E-01  1.54466432132E-01  1.58281753006E-01
  1.62191312305E-01  1.66197437719E-01  1.70302514430E-01  1.74508986537E-01
  1.78819358504E-01  1.83236196659E-01  1.87762130717E-01  1.92399855346E-01
  1.97152131773E-01  2.02021789427E-01  2.07011727626E-01  2.12124917299E-01
  2.17364402756E-01  2.22733303504E-01  2.28234816100E-01  2.33872216058E-01
  2.39648859795E-01  2.45568186632E-01  2.51633720841E-01  2.57849073746E-01
  2.64217945868E-01  2.70744129131E-01  2.77431509120E-01  2.84284067396E-01
  2.91305883860E-01  2.98501139192E-01  3.05874117330E-01  3.13429208028E-01
  3.21170909466E-01  3.29103830930E-01  3.37232695554E-01  3.45562343134E-01
  3.54097733009E-01  3.62843947015E-01  3.71806192506E-01  3.80989805461E-01
  3.90400253656E-01  4.00043139921E-01  4.09924205477E-01  4.20049333352E-01
  4.30424551886E-01  4.41056038318E-01  4.51950122464E-01  4.63113290489E-01
  4.74552188764E-01  4.86273627827E-01  4.98284586434E-01  5.10592215719E-01
  5.23203843447E-01  5.36126978380E-01  5.49369314746E-01  5.62938736820E-01
  5.76843323620E-01  5.91091353713E-01  6.05691310150E-01  6.20651885511E-01
  6.35981987083E-01  6.51690742164E-01  6.67787503495E-01  6.84281854831E-01
  7.01183616646E-01  7.18502851977E-01  7.36249872421E-01  7.54435244270E-01
  7.73069794803E-01  7.92164618735E-01  8.11731084817E-01  8.31780842612E-01
  8.52325829425E-01  8.73378277412E-01  8.94950720864E-01  9.17056003669E-01
  9.39707286960E-01  9.62918056948E-01  9.86702132954E-01  1.01107367564E+00
  1.03604719543E+00  1.06163756115E+00  1.08786000891E+00  1.11473015113E+00
  1.14226398587E+00  1.17047790632E+00  1.19938871060E+00  1.22901361176E+00
  1.25937024797E+00  1.29047669309E+00  1.32235146741E+00  1.35501354866E+00
  1.38848238331E+00  1.42277789818E+00  1.45792051226E+00  1.49393114891E+00
  1.53083124829E+00  1.56864278012E+00  1.60738825679E+00  1.64709074674E+00
  1.68777388818E+00  1.72946190322E+00  1.77217961223E+00  1.81595244865E+00
  1.86080647413E+00
  </PP_RAB>
</PP_MESH>


<PP_LOCAL>
 -5.30711496049E+01 -5.30713073664E+01 -5.30714729047E+01 -5.30716466095E+01
 -5.30718288903E+01 -5.30720201766E+01 -5.30722209193E+01 -5.30724315915E+01
 -5.30726526898E+01 -5.30728847352E+01 -5.30731282748E+01 -5.30733838825E+01
 -5.30736521605E+01 -5.30739337408E+01 -5.30742292868E+01 -5.30745394943E+01
 -5.30748650937E+01 -5.30752068514E+01 -5.30755655713E+01 -5.30759420971E+01
 -5.30763373140E+01 -5.30767521506E+01 -5.30771875814E+01 -5.30776446283E+01
 -5.30781243637E+01 -5.30786279125E+01 -5.30791564545E+01 -5.30797112273E+01
 -5.30802935291E+01 -5.30809047212E+01 -5.30815462316E+01 -5.30822195575E+01
 -5.30829262689E+01 -5.30836680124E+01 -5.30844465141E+01 -5.30852635837E+01
 -5.30861211184E+01 -5.30870211070E+01 -5.30879656339E+01 -5.30889568840E+01
 -5.30899971467E+01 -5.30910888211E+01 -5.30922344209E+01 -5.30934365795E+01
 -5.30946980557E+01 -5.30960217387E+01 -5.30974106546E+01 -5.30988679719E+01
 -5.31003970082E+01 -5.31020012364E+01 -5.31036842913E+01 -5.31054499771E+01
 -5.31073022740E+01 -5.31092453458E+01 -5.31112835477E+01 -5.31134214341E+01
 -5.31156637667E+01 -5.31180155225E+01 -5.31204819033E+01 -5.31230683432E+01
 -5.31257805186E+01 -5.31286243569E+01 -5.31316060458E+01 -5.31347320431E+01
 -5.31380090859E+01 -5.31414442006E+01 -5.31450447128E+01 -5.31488182569E+01
 -5.31527727864E+01 -5.31569165832E+01 -5.31612582678E+01 -5.31658068091E+01
 -5.31705715333E+01 -5.31755621335E+01 -5.31807886789E+01 -5.31862616225E+01
 -5.31919918097E+01 -5.31979904853E+01 -5.32042693007E+01 -5.32108403188E+01
 -5.32177160196E+01 -5.32249093038E+01 -5.32324334947E+01 -5.32403023398E+01
 -5.32485300099E+01 -5.32571310963E+01 -5.32661206066E+01 -5.32755139577E+01
 -5.32853269662E+01 -5.32955758363E+01 -5.33062771446E+01 -5.33174478208E+01
 -5.33291051259E+01 -5.33412666255E+01 -5.33539501585E+01 -5.33671738020E+01
 -5.33809558305E+01 -5.33953146693E+01 -5.34102688428E+01 -5.34258369159E+01
 -5.34420374291E+01 -5.34588888266E+01 -5.34764093767E+01 -5.34946170848E+01
 -5.35135295978E+01 -5.35331641012E+01 -5.35535372060E+01 -5.35746648285E+01
 -5.35965620593E+01 -5.36192430250E+01 -5.36427207392E+01 -5.36670069460E+01
 -5.36921119534E+01 -5.37180444592E+01 -5.37448113683E+01 -5.37724176033E+01
 -5.38008659074E+01 -5.38301566429E+01 -5.38602875841E+01 -5.38912537074E+01
 -5.39230469800E+01 -5.39556561479E+01 -5.39890665266E+01 -5.40232597951E+01
 -5.40582137975E+01 -5.40939023525E+01 -5.41302950752E+01 -5.41673572132E+01
 -5.42050495010E+01 -5.42433280340E+01 -5.42821441671E+01 -5.43214444403E+01
 -5.43611705338E+01 -5.44012592566E+01 -5.44416425712E+01 -5.44822476563E+01
 -5.45229970107E+01 -5.45638085997E+01 -5.46045960463E+01 -5.46452688670E+01
 -5.46857327542E+01 -5.47258899037E+01 -5.47656393875E+01 -5.48048775699E+01
 -5.48434985657E+01 -5.48813947365E+01 -5.49184572227E+01 -5.49545765070E+01
 -5.49896430043E+01 -5.50235476735E+01 -5.50561826453E+01 -5.50874418599E+01
 -5.51172217096E+01 -5.51454216777E+01 -5.51719449701E+01 -5.51966991311E+01
 -5.52195966382E+01 -5.52405554700E+01 -5.52594996420E+01 -5.52763597033E+01
 -5.52910731927E+01 -5.53035850470E+01 -5.53138479591E+01 -5.53218226833E+01
 -5.53274782842E+01 -5.53307923274E+01 -5.53317510103E+01 -5.53303492323E+01
 -5.53265906023E+01 -5.53204873838E+01 -5.53120603781E+01 -5.53013387432E+01
 -5.52883597512E+01 -5.52731684833E+01 -5.52558174632E+01 -5.52363662311E+01
 -5.52148808575E+01 -5.51914334008E+01 -5.51661013103E+01 -5.51389667759E+01
 -5.51101160301E+01 -5.50796386055E+01 -5.50476265521E+01 -5.50141736204E+01
 -5.49793744179E+01 -5.49433235441E+01 -5.49061147135E+01 -5.48678398756E+01
 -5.48285883390E+01 -5.47884459116E+01 -5.47474940649E+01 -5.47058091332E+01
 -5.46634615565E+01 -5.46205151766E+01 -5.45770265948E+01 -5.45330445984E+01
 -5.44886096628E+01 -5.44437535348E+01 -5.43984989001E+01 -5.43528591394E+01
 -5.43068381722E+01 -5.42604303910E+01 -5.42136206818E+01 -5.41663845309E+01
 -5.41186882129E+01 -5.40704890560E+01 -5.40217357793E+01 -5.39723688956E+01
 -5.39223211728E+01 -5.38715181477E+01 -5.38198786813E+01 -5.37673155497E+01
 -5.37137360592E+01 -5.36590426746E+01 -5.36031336511E+01 -5.35459036553E+01
 -5.34872443619E+01 -5.34270450114E+01 -5.33651929126E+01 -5.33015738706E+01
 -5.32360725255E+01 -5.31685725785E+01 -5.30989568906E+01 -5.30271074326E+01
 -5.29529050713E+01 -5.28762291764E+01 -5.27969570361E+01 -5.27149630748E+01
 -5.26301178695E+01 -5.25422869664E+01 -5.24513295075E+01 -5.23570966796E+01
 -5.22594300047E+01 -5.21581594942E+01 -5.20531016919E+01 -5.19440576282E+01
 -5.18308107050E+01 -5.17131245203E+01 -5.15907406244E+01 -5.14633761754E+01
 -5.13307214272E+01 -5.11924369320E+01 -5.10481502805E+01 -5.08974521189E+01
 -5.07398910908E+01 -5.05749672428E+01 -5.04021233252E+01 -5.02207333406E+01
 -5.00300876653E+01 -4.98293741747E+01 -4.96176551132E+01 -4.93938400671E+01
 -4.91566564327E+01 -4.89046202528E+01 -4.86360121594E+01 -4.83488650835E+01
 -4.80409717775E+01 -4.77099201323E+01 -4.73531618097E+01 -4.69681142789E+01
 -4.65522884034E+01 -4.61034251722E+01 -4.56196191248E+01 -4.50994056724E+01
 -4.45417963576E+01 -4.39462586713E+01 -4.33126511048E+01 -4.26411345871E+01
 -4.19320849097E+01 -4.11860269151E+01 -4.04036026866E+01 -3.95855764253E+01
 -3.87328711251E+01 -3.78466279285E+01 -3.69282779908E+01 -3.59796177506E+01
 -3.50028805322E+01 -3.40007994790E+01 -3.29766584635E+01 -3.19343286929E+01
 -3.08782892975E+01 -2.98136304066E+01 -2.87460372376E+01 -2.76817536812E+01
 -2.66275238300E+01 -2.55905099171E+01 -2.45781851901E+01 -2.35982003255E+01
 -2.26582220153E+01 -2.17657423003E+01 -2.09278570246E+01 -2.01510114879E+01
 -1.94407111308E+01 -1.88011952476E+01 -1.82350729765E+01 -1.77429242225E+01
 -1.73228753579E+01 -1.69701726576E+01 -1.66767981728E+01 -1.64312061171E+01
 -1.62183058494E+01 -1.60198827321E+01 -1.58157323586E+01 -1.55858883415E+01
 -1.53144517830E+01 -1.49956896350E+01 -1.46432785904E+01 -1.42903136303E+01
 -1.39458530655E+01 -1.36096949804E+01 -1.32816394221E+01 -1.29614912115E+01
 -1.26490598392E+01 -1.23441593613E+01 -1.20466082965E+01 -1.17562295232E+01
 -1.14728501790E+01 -1.11963015604E+01 -1.09264190254E+01 -1.06630418970E+01
 -1.04060133688E+01 -1.01551804124E+01 -9.91039368726E+00 -9.67150745197E+00
 -9.43837947777E+00 -9.21087096409E+00 -8.98884645600E+00 -8.77217376361E+00
 -8.56072388341E+00 -8.35437092148E+00 -8.15299201852E+00 -7.95646727672E+00
 -7.76467968838E+00 -7.57751506623E+00 -7.39486197543E+00 -7.21661166724E+00
 -7.04265801429E+00 -6.87289744734E+00 -6.70722889366E+00 -6.54555371686E+00
 -6.38777565810E+00 -6.23380077886E+00 -6.08353740496E+00 -5.93689607198E+00
 -5.79378947202E+00 -5.65413240170E+00 -5.51784171143E+00 -5.38483625591E+00
 -5.25503684582E+00 -5.12836620066E+00 -5.00474890276E+00 -4.88411135236E+00
 -4.76638172378E+00 -4.65148992269E+00 -4.53936754435E+00 -4.42994783287E+00
 -4.32316564153E+00 -4.21895739390E+00 -4.11726104606E+00 -4.01801604964E+00
 -3.92116331574E+00 -3.82664517980E+00 -3.73440536722E+00 -3.64438895992E+00
 -3.55654236354E+00 -3.47081327563E+00 -3.38715065446E+00 -3.30550468865E+00
 -3.22582676750E+00 -3.14806945203E+00 -3.07218644679E+00 -2.99813257226E+00
 -2.92586373793E+00 -2.85533691611E+00 -2.78651011623E+00 -2.71934235994E+00
 -2.65379365662E+00 -2.58982497963E+00 -2.52739824303E+00 -2.46647627894E+00
 -2.40702281540E+00 -2.34900245476E+00 -2.29238065264E+00 -2.23712369732E+00
 -2.18319868968E+00 -2.13057352365E+00 -2.07921686703E+00 -2.02909814290E+00
 -1.98018751137E+00 -1.93245585183E+00 -1.88587474562E+00 -1.84041645908E+00
 -1.79605392708E+00 -1.75276073688E+00 -1.71051111240E+00 -1.66927989890E+00
 -1.62904254796E+00 -1.58977510292E+00 -1.55145418456E+00 -1.51405697723E+00
 -1.47756121521E+00 -1.44194516952E+00 -1.40718763494E+00 -1.37326791738E+00
 -1.34016582159E+00 -1.30786163910E+00 -1.27633613653E+00 -1.24557054409E+00
 -1.21554654444E+00 -1.18624626178E+00 -1.15765225117E+00 -1.12974748821E+00
 -1.10251535885E+00 -1.07593964951E+00 -1.05000453743E+00 -1.02469458127E+00
 -9.99994711891E-01 -9.75890223374E-01 -9.52366764296E-01 -9.29410329165E-01
 -9.07007250088E-01 -8.85144188629E-01 -8.63808127871E-01 -8.42986364663E-01
 -8.22666502062E-01 -8.02836441946E-01 -7.83484377814E-01 -7.64598787757E-01
 -7.46168427595E-01 -7.28182324188E-01 -7.10629768896E-01 -6.93500311209E-01
 -6.76783752522E-01 -6.60470140062E-01 -6.44549760966E-01 -6.29013136495E-01
 -6.13851016390E-01 -5.99054373368E-01 -5.84614397744E-01 -5.70522492187E-01
 -5.56770266602E-01 -5.43349533133E-01 -5.30252301291E-01 -5.17470773193E-01
 -5.04997338922E-01 -4.92824571994E-01 -4.80945224938E-01 -4.69352224981E-01
 -4.58038669836E-01 -4.46997823593E-01 -4.36223112709E-01 -4.25708122094E-01
 -4.15446591289E-01 -4.05432410743E-01 -3.95659618174E-01 -3.86122395017E-01
 -3.76815062962E-01 -3.67732080572E-01 -3.58868039985E-01 -3.50217663691E-01
 -3.41775801397E-01 -3.33537426951E-01 -3.25497635358E-01 -3.17651639853E-01
 -3.09994769058E-01 -3.02522464192E-01 -2.95230276366E-01 -2.88113863927E-01
 -2.81168989877E-01 -2.74391519349E-01 -2.67777417146E-01 -2.61322745336E-01
 -2.55023660911E-01 -2.48876413498E-01 -2.42877343123E-01 -2.37022878035E-01
 -2.31309532581E-01 -2.25733905124E-01 -2.20292676026E-01 -2.14982605666E-01
 -2.09800532513E-01
</PP_LOCAL>


<PP_NONLOCAL>
  <PP_BETA>
    1    0             Beta    L
   398
  3.77231418905E-02  3.86549034951E-02  3.96096796115E-02  4.05880386979E-02
  4.15905632481E-02  4.26178501074E-02  4.36705109094E-02  4.47491723856E-02
  4.58544767490E-02  4.69870820751E-02  4.81476626934E-02  4.93369095890E-02
  5.05555308143E-02  5.18042519099E-02  5.30838163369E-02  5.43949859197E-02
  5.57385412989E-02  5.71152823969E-02  5.85260288932E-02  5.99716207131E-02
  6.14529185274E-02  6.29708042646E-02  6.45261816365E-02  6.61199766754E-02
  6.77531382861E-02  6.94266388102E-02  7.11414746053E-02  7.28986666381E-02
  7.46992610919E-02  7.65443299896E-02  7.84349718319E-02  8.03723122507E-02
  8.23575046800E-02  8.43917310418E-02  8.64762024499E-02  8.86121599305E-02
  9.08008751616E-02  9.30436512292E-02  9.53418234034E-02  9.76967599326E-02