<PP_INFO>
Generated using "atomic" code by A. Dal Corso  (espresso distribution)     
Author: anonymous   Generation date:  3Sep2008                             
Pb                                                                         
    1        The Pseudo was generated with a Scalar-Relativistic Calculation
    0 2.0000000E+00    L component and cutoff radius for Local Potential
nl pn  l   occ               Rcut            Rcut US             E pseu
6P  2  1  2.00      2.10000000000      2.10000000000     -0.25705478051
5D  3  2 10.00      1.60000000000      1.60000000000     -1.55648530073
6S  1  0  2.00      2.00000000000      2.00000000000     -0.88491181138
</PP_INFO>


<PP_HEADER>
   0                   Version Number
  Pb                   Element
   NC                  Norm - Conserving pseudopotential
    F                  Nonlinear Core Correction
 SLA  PW   PBX  PBC    PBE  Exchange-Correlation functional
   14.00000000000      Z valence
 -119.48282222547      Total energy
     92.403    369.610 Suggested cutoff for wfc and rho
    2                  Max angular momentum component
 1281                  Number of points in mesh
    6    2             Number of Wavefunctions, Number of Projectors
 Wavefunctions         nl  l   occ
                       6S  0  2.00
                       7S  0  0.00
                       6P  1  2.00
                       7P  1  0.00
                       5D  2 10.00
                       6D  2  0.00
</PP_HEADER>


<PP_MESH>
  <PP_R>
  1.11205117751E-05  1.12603905935E-05  1.14020288709E-05  1.15454487386E-05
  1.16906726060E-05  1.18377231649E-05  1.19866233921E-05  1.21373965535E-05
  1.22900662079E-05  1.24446562101E-05  1.26011907152E-05  1.27596941820E-05
  1.29201913769E-05  1.30827073781E-05  1.32472675788E-05  1.34138976921E-05
  1.35826237542E-05  1.37534721289E-05  1.39264695116E-05  1.41016429335E-05
  1.42790197657E-05  1.44586277239E-05  1.46404948721E-05  1.48246496274E-05
  1.50111207643E-05  1.51999374194E-05  1.53911290957E-05  1.55847256672E-05
  1.57807573837E-05  1.59792548758E-05  1.61802491589E-05  1.63837716388E-05
  1.65898541164E-05  1.67985287925E-05  1.70098282729E-05  1.72237855735E-05
  1.74404341257E-05  1.76598077812E-05  1.78819408176E-05  1.81068679436E-05
  1.83346243046E-05  1.85652454879E-05  1.87987675286E-05  1.90352269150E-05
  1.92746605943E-05  1.95171059786E-05  1.97626009504E-05  2.00111838687E-05
  2.02628935753E-05  2.05177694002E-05  2.07758511683E-05  2.10371792055E-05
  2.13017943446E-05  2.15697379325E-05  2.18410518359E-05  2.21157784480E-05
  2.23939606955E-05  2.26756420449E-05  2.29608665095E-05  2.32496786562E-05
  2.35421236125E-05  2.38382470736E-05  2.41380953092E-05  2.44417151713E-05
  2.47491541012E-05  2.50604601367E-05  2.53756819201E-05  2.56948687055E-05
  2.60180703663E-05  2.63453374036E-05  2.66767209534E-05  2.70122727952E-05
  2.73520453596E-05  2.76960917367E-05  2.80444656845E-05  2.83972216370E-05
  2.87544147133E-05  2.91161007253E-05  2.94823361874E-05  2.98531783244E-05
  3.02286850813E-05  3.06089151317E-05  3.09939278874E-05  3.13837835074E-05
  3.17785429074E-05  3.21782677694E-05  3.25830205512E-05  3.29928644963E-05
  3.34078636435E-05  3.38280828374E-05  3.42535877381E-05  3.46844448316E-05
  3.51207214401E-05  3.55624857328E-05  3.60098067363E-05  3.64627543453E-05
  3.69213993339E-05  3.73858133662E-05  3.78560690079E-05  3.83322397375E-05
  3.88143999574E-05  3.93026250064E-05  3.97969911704E-05  4.02975756953E-05
  4.08044567984E-05  4.13177136809E-05  4.18374265402E-05  4.23636765825E-05
  4.28965460355E-05  4.34361181611E-05  4.39824772685E-05  4.45357087274E-05
  4.50958989815E-05  4.56631355615E-05  4.62375070994E-05  4.68191033418E-05
  4.74080151643E-05  4.80043345857E-05  4.86081547821E-05  4.92195701015E-05
  4.98386760788E-05  5.04655694507E-05  5.11003481705E-05  5.17431114237E-05
  5.23939596433E-05  5.30529945257E-05  5.37203190464E-05  5.43960374763E-05
  5.50802553977E-05  5.57730797211E-05  5.64746187016E-05  5.71849819562E-05
  5.79042804806E-05  5.86326266666E-05  5.93701343199E-05  6.01169186774E-05
  6.08730964257E-05  6.16387857193E-05  6.24141061984E-05  6.31991790087E-05
  6.39941268193E-05  6.47990738424E-05  6.56141458526E-05  6.64394702066E-05
  6.72751758629E-05  6.81213934024E-05  6.89782550482E-05  6.98458946867E-05
  7.07244478883E-05  7.16140519288E-05  7.25148458106E-05  7.34269702846E-05
  7.43505678721E-05  7.52857828871E-05  7.62327614589E-05  7.71916515547E-05
  7.81626030031E-05  7.91457675173E-05  8.01412987187E-05  8.11493521610E-05
  8.21700853547E-05  8.32036577914E-05  8.42502309690E-05  8.53099684165E-05
  8.63830357201E-05  8.74696005489E-05  8.85698326807E-05  8.96839040290E-05
  9.08119886698E-05  9.19542628686E-05  9.31109051080E-05  9.42820961159E-05
  9.54680188930E-05  9.66688587423E-05  9.78848032975E-05  9.91160425523E-05
  1.00362768890E-04  1.01625177115E-04  1.02903464481E-04  1.04197830722E-04
  1.05508478087E-04  1.06835611366E-04  1.08179437926E-04  1.09540167744E-04
  1.10918013435E-04  1.12313190292E-04  1.13725916314E-04  1.15156412241E-04
  1.16604901592E-04  1.18071610696E-04  1.19556768730E-04  1.21060607751E-04
  1.22583362739E-04  1.24125271627E-04  1.25686575341E-04  1.27267517839E-04
  1.28868346145E-04  1.30489310392E-04  1.32130663859E-04  1.33792663011E-04
  1.35475567540E-04  1.37179640401E-04  1.38905147860E-04  1.40652359531E-04
  1.42421548419E-04  1.44212990965E-04  1.46026967083E-04  1.47863760212E-04
  1.49723657354E-04  1.51606949123E-04  1.53513929786E-04  1.55444897312E-04
  1.57400153420E-04  1.59380003623E-04  1.61384757275E-04  1.63414727624E-04
  1.65470231856E-04  1.67551591149E-04  1.69659130719E-04  1.71793179873E-04
  1.73954072061E-04  1.76142144927E-04  1.78357740361E-04  1.80601204555E-04
  1.82872888055E-04  1.85173145815E-04  1.87502337256E-04  1.89860826319E-04
  1.92248981523E-04  1.94667176020E-04  1.97115787661E-04  1.99595199044E-04
  2.02105797582E-04  2.04647975563E-04  2.07222130207E-04  2.09828663730E-04
  2.12467983408E-04  2.15140501642E-04  2.17846636016E-04  2.20586809370E-04
  2.23361449863E-04  2.26170991036E-04  2.29015871886E-04  2.31896536933E-04
  2.34813436285E-04  2.37767025715E-04  2.40757766726E-04  2.43786126627E-04
  2.46852578607E-04  2.49957601805E-04  2.53101681387E-04  2.56285308621E-04
  2.59508980956E-04  2.62773202097E-04  2.66078482086E-04  2.69425337379E-04
  2.72814290929E-04  2.76245872267E-04  2.79720617584E-04  2.83239069818E-04
  2.86801778732E-04  2.90409301007E-04  2.94062200327E-04  2.97761047464E-04
  3.01506420370E-04  3.05298904268E-04  3.09139091741E-04  3.13027582825E-04
  3.16964985107E-04  3.20951913812E-04  3.24988991907E-04  3.29076850193E-04
  3.33216127406E-04  3.37407470317E-04  3.41651533832E-04  3.45948981094E-04
  3.50300483588E-04  3.54706721246E-04  3.59168382550E-04  3.63686164645E-04
  3.68260773443E-04  3.72892923736E-04  3.77583339307E-04  3.82332753043E-04
  3.87141907050E-04  3.92011552767E-04  3.96942451087E-04  4.01935372472E-04
  4.06991097077E-04  4.12110414869E-04  4.17294125752E-04  4.22543039691E-04
  4.27857976840E-04  4.33239767668E-04  4.38689253091E-04  4.44207284602E-04
  4.49794724405E-04  4.55452445550E-04  4.61181332065E-04  4.66982279102E-04
  4.72856193070E-04  4.78803991780E-04  4.84826604588E-04  4.90924972539E-04
  4.97100048517E-04  5.03352797388E-04  5.09684196158E-04  5.16095234120E-04
  5.22586913013E-04  5.29160247174E-04  5.35816263700E-04  5.42556002608E-04
  5.49380516995E-04  5.56290873205E-04  5.63288150996E-04  5.70373443707E-04
  5.77547858429E-04  5.84812516178E-04  5.92168552073E-04  5.99617115509E-04
  6.07159370340E-04  6.14796495057E-04  6.22529682977E-04  6.30360142427E-04
  6.38289096932E-04  6.46317785407E-04  6.54447462350E-04  6.62679398041E-04
  6.71014878737E-04  6.79455206872E-04  6.88001701266E-04  6.96655697325E-04
  7.05418547254E-04  7.14291620267E-04  7.23276302798E-04  7.32373998723E-04
  7.41586129576E-04  7.50914134770E-04  7.60359471825E-04  7.69923616595E-04
  7.79608063496E-04  7.89414325744E-04  7.99343935586E-04  8.09398444544E-04
  8.19579423655E-04  8.29888463720E-04  8.40327175545E-04  8.50897190201E-04
  8.61600159274E-04  8.72437755124E-04  8.83411671149E-04  8.94523622045E-04
  9.05775344077E-04  9.17168595349E-04  9.28705156081E-04  9.40386828882E-04
  9.52215439038E-04  9.64192834795E-04  9.76320887643E-04  9.88601492616E-04
  1.00103656858E-03  1.01362805855E-03  1.02637792997E-03  1.03928817502E-03
  1.05236081097E-03  1.06559788043E-03  1.07900145173E-03  1.09257361921E-03
  1.10631650353E-03  1.12023225206E-03  1.13432303915E-03  1.14859106653E-03
  1.16303856360E-03  1.17766778782E-03  1.19248102502E-03  1.20748058980E-03
  1.22266882589E-03  1.23804810646E-03  1.25362083458E-03  1.26938944349E-03
  1.28535639710E-03  1.30152419025E-03  1.31789534921E-03  1.33447243199E-03
  1.35125802881E-03  1.36825476244E-03  1.38546528867E-03  1.40289229666E-03
  1.42053850943E-03  1.43840668424E-03  1.45649961301E-03  1.47482012281E-03
  1.49337107626E-03  1.51215537197E-03  1.53117594504E-03  1.55043576746E-03
  1.56993784863E-03  1.58968523578E-03  1.60968101449E-03  1.62992830912E-03
  1.65043028337E-03  1.67119014071E-03  1.69221112491E-03  1.71349652055E-03
  1.73504965349E-03  1.75687389148E-03  1.77897264459E-03  1.80134936579E-03
  1.82400755150E-03  1.84695074209E-03  1.87018252250E-03  1.89370652273E-03
  1.91752641846E-03  1.94164593159E-03  1.96606883085E-03  1.99079893237E-03
  2.01584010026E-03  2.04119624728E-03  2.06687133536E-03  2.09286937629E-03
  2.11919443232E-03  2.14585061679E-03  2.17284209479E-03  2.20017308379E-03
  2.22784785430E-03  2.25587073058E-03  2.28424609124E-03  2.31297837001E-03
  2.34207205635E-03  2.37153169622E-03  2.40136189273E-03  2.43156730693E-03
  2.46215265847E-03  2.49312272637E-03  2.52448234977E-03  2.55623642867E-03
  2.58838992472E-03  2.62094786195E-03  2.65391532762E-03  2.68729747297E-03
  2.72109951401E-03  2.75532673238E-03  2.78998447616E-03  2.82507816069E-03
  2.86061326944E-03  2.89659535482E-03  2.93303003913E-03  2.96992301534E-03
  3.00728004807E-03  3.04510697442E-03  3.08340970494E-03  3.12219422449E-03
  3.16146659324E-03  3.20123294758E-03  3.24149950108E-03  3.28227254548E-03
  3.32355845163E-03  3.36536367056E-03  3.40769473441E-03  3.45055825749E-03
  3.49396093732E-03  3.53790955565E-03  3.58241097956E-03  3.62747216246E-03
  3.67310014527E-03  3.71930205745E-03  3.76608511815E-03  3.81345663730E-03
  3.86142401682E-03  3.90999475169E-03  3.95917643120E-03  4.00897674008E-03
  4.05940345973E-03  4.11046446943E-03  4.16216774757E-03  4.21452137289E-03
  4.26753352575E-03  4.32121248940E-03  4.37556665129E-03  4.43060450438E-03
  4.48633464843E-03  4.54276579140E-03  4.59990675077E-03  4.65776645493E-03
  4.71635394457E-03  4.77567837411E-03  4.83574901311E-03  4.89657524773E-03
  4.95816658220E-03  5.02053264029E-03  5.08368316681E-03  5.14762802917E-03
  5.21237721889E-03  5.27794085315E-03  5.34432917640E-03  5.41155256196E-03
  5.47962151362E-03  5.54854666729E-03  5.61833879267E-03  5.68900879491E-03
  5.76056771635E-03  5.83302673822E-03  5.90639718238E-03  5.98069051312E-03
  6.05591833892E-03  6.13209241428E-03  6.20922464156E-03  6.28732707281E-03
  6.36641191172E-03  6.44649151544E-03  6.52757839657E-03  6.60968522511E-03
  6.69282483041E-03  6.77701020321E-03  6.86225449765E-03  6.94857103330E-03
  7.03597329732E-03  7.12447494648E-03  7.21408980935E-03  7.30483188843E-03
  7.39671536235E-03  7.48975458809E-03  7.58396410323E-03  7.67935862819E-03
  7.77595306856E-03  7.87376251741E-03  7.97280225768E-03  8.07308776452E-03
  8.17463470775E-03  8.27745895429E-03  8.38157657062E-03  8.48700382535E-03
  8.59375719169E-03  8.70185335008E-03  8.81130919076E-03  8.92214181642E-03
  9.03436854490E-03  9.14800691184E-03  9.26307467348E-03  9.37958980937E-03
  9.49757052526E-03  9.61703525587E-03  9.73800266780E-03  9.86049166246E-03
  9.98452137900E-03  1.01101111973E-02  1.02372807411E-02  1.03660498808E-02
  1.04964387369E-02  1.06284676829E-02  1.07621573486E-02  1.08975286233E-02
  1.10346026590E-02  1.11734008738E-02  1.13139449552E-02  1.14562568636E-02
  1.16003588354E-02  1.17462733868E-02  1.18940233174E-02  1.20436317133E-02
  1.21951219512E-02  1.23485177017E-02  1.25038429332E-02  1.26611219156E-02
  1.28203792241E-02  1.29816397429E-02  1.31449286693E-02  1.33102715176E-02
  1.34776941229E-02  1.36472226453E-02  1.38188835740E-02  1.39927037314E-02
  1.41687102772E-02  1.43469307128E-02  1.45273928855E-02  1.47101249929E-02
  1.48951555873E-02  1.50825135801E-02  1.52722282462E-02  1.54643292292E-02
  1.56588465450E-02  1.58558105874E-02  1.60552521325E-02  1.62572023435E-02
  1.64616927753E-02  1.66687553802E-02  1.68784225120E-02  1.70907269316E-02
  1.73057018121E-02  1.75233807437E-02  1.77437977392E-02  1.79669872393E-02
  1.81929841176E-02  1.84218236867E-02  1.86535417032E-02  1.88881743736E-02
  1.91257583596E-02  1.93663307843E-02  1.96099292376E-02  1.98565917823E-02
  2.01063569598E-02  2.03592637964E-02  2.06153518095E-02  2.08746610132E-02
  2.11372319252E-02  2.14031055727E-02  2.16723234990E-02  2.19449277699E-02
  2.22209609804E-02  2.25004662613E-02  2.27834872858E-02  2.30700682765E-02
  2.33602540124E-02  2.36540898354E-02  2.39516216582E-02  2.42528959705E-02
  2.45579598472E-02  2.48668609551E-02  2.51796475606E-02  2.54963685372E-02
  2.58170733733E-02  2.61418121797E-02  2.64706356974E-02  2.68035953057E-02
  2.71407430304E-02  2.74821315514E-02  2.78278142113E-02  2.81778450239E-02
  2.85322786820E-02  2.88911705668E-02  2.92545767557E-02  2.96225540318E-02
  2.99951598922E-02  3.03724525573E-02  3.07544909800E-02  3.11413348544E-02
  3.15330446258E-02  3.19296814996E-02  3.23313074510E-02  3.27379852350E-02
  3.31497783958E-02  3.35667512770E-02  3.39889690313E-02  3.44164976312E-02
  3.48494038788E-02  3.52877554167E-02  3.57316207382E-02  3.61810691981E-02
  3.66361710237E-02  3.70969973256E-02  3.75636201088E-02  3.80361122840E-02
  3.85145476791E-02  3.89990010507E-02  3.94895480956E-02  3.99862654627E-02
  4.04892307651E-02  4.09985225922E-02  4.15142205218E-02  4.20364051329E-02
  4.25651580178E-02  4.31005617953E-02  4.36427001232E-02  4.41916577118E-02
  4.47475203368E-02  4.53103748529E-02  4.58803092073E-02  4.64574124533E-02
  4.70417747646E-02  4.76334874489E-02  4.82326429624E-02  4.88393349246E-02
  4.94536581323E-02  5.00757085746E-02  5.07055834482E-02  5.13433811725E-02
  5.19892014045E-02  5.26431450550E-02  5.33053143040E-02  5.39758126169E-02
  5.46547447602E-02  5.53422168187E-02  5.60383362111E-02  5.67432117075E-02
  5.74569534462E-02  5.81796729508E-02  5.89114831477E-02  5.96524983836E-02
  6.04028344438E-02  6.11626085698E-02  6.19319394778E-02  6.27109473773E-02
  6.34997539900E-02  6.42984825684E-02  6.51072579155E-02  6.59262064042E-02
  6.67554559967E-02  6.75951362650E-02  6.84453784109E-02  6.93063152864E-02
  7.01780814147E-02  7.10608130110E-02  7.19546480039E-02  7.28597260569E-02
  7.37761885904E-02  7.47041788034E-02  7.56438416964E-02  7.65953240935E-02
  7.75587746659E-02  7.85343439546E-02  7.95221843943E-02  8.05224503371E-02
  8.15352980766E-02  8.25608858723E-02  8.35993739744E-02  8.46509246487E-02
  8.57157022023E-02  8.67938730087E-02  8.78856055344E-02  8.89910703647E-02
  9.01104402309E-02  9.12438900366E-02  9.23915968858E-02  9.35537401100E-02
  9.47305012964E-02  9.59220643164E-02  9.71286153541E-02  9.83503429355E-02
  9.95874379581E-02  1.00840093721E-01  1.02108505953E-01  1.03392872847E-01
  1.04693395088E-01  1.06010275884E-01  1.07343721002E-01  1.08693938795E-01
  1.10061140237E-01  1.11445538956E-01  1.12847351267E-01  1.14266796207E-01
  1.15704095565E-01  1.17159473924E-01  1.18633158690E-01  1.20125380127E-01
  1.21636371400E-01  1.23166368603E-01  1.24715610802E-01  1.26284340069E-01
  1.27872801521E-01  1.29481243358E-01  1.31109916903E-01  1.32759076640E-01
  1.34428980252E-01  1.36119888665E-01  1.37832066089E-01  1.39565780053E-01
  1.41321301454E-01  1.43098904596E-01  1.44898867233E-01  1.46721470613E-01
  1.48566999521E-01  1.50435742325E-01  1.52327991020E-01  1.54244041273E-01
  1.56184192472E-01  1.58148747768E-01  1.60138014128E-01  1.62152302378E-01
  1.64191927256E-01  1.66257207456E-01  1.68348465684E-01  1.70466028701E-01
  1.72610227383E-01  1.74781396763E-01  1.76979876093E-01  1.79206008888E-01
  1.81460142986E-01  1.83742630601E-01  1.86053828376E-01  1.88394097441E-01
  1.90763803466E-01  1.93163316723E-01  1.95593012142E-01  1.98053269367E-01
  2.00544472818E-01  2.03067011751E-01  2.05621280318E-01  2.08207677628E-01
  2.10826607812E-01  2.13478480082E-01  2.16163708798E-01  2.18882713534E-01
  2.21635919140E-01  2.24423755808E-01  2.27246659145E-01  2.30105070235E-01
  2.32999435710E-01  2.35930207821E-01  2.38897844507E-01  2.41902809468E-01
  2.44945572234E-01  2.48026608244E-01  2.51146398917E-01  2.54305431725E-01
  2.57504200275E-01  2.60743204380E-01  2.64022950140E-01  2.67343950024E-01
  2.70706722944E-01  2.74111794341E-01  2.77559696263E-01  2.81050967452E-01
  2.84586153426E-01  2.88165806566E-01  2.91790486200E-01  2.95460758690E-01
  2.99177197526E-01  3.02940383407E-01  3.06750904339E-01  3.10609355725E-01
  3.14516340454E-01  3.18472469001E-01  3.22478359519E-01  3.26534637937E-01
  3.30641938057E-01  3.34800901652E-01  3.39012178569E-01  3.43276426829E-01
  3.47594312729E-01  3.51966510947E-01  3.56393704649E-01  3.60876585593E-01
  3.65415854237E-01  3.70012219851E-01  3.74666400628E-01  3.79379123792E-01
  3.84151125716E-01  3.88983152036E-01  3.93875957764E-01  3.98830307411E-01
  4.03846975106E-01  4.08926744712E-01  4.14070409954E-01  4.19278774540E-01
  4.24552652288E-01  4.29892867251E-01  4.35300253849E-01  4.40775656998E-01
  4.46319932240E-01  4.51933945879E-01  4.57618575117E-01  4.63374708188E-01
  4.69203244500E-01  4.75105094774E-01  4.81081181185E-01  4.87132437510E-01
  4.93259809269E-01  4.99464253877E-01  5.05746740791E-01  5.12108251661E-01
  5.18549780489E-01  5.25072333774E-01  5.31676930680E-01  5.38364603187E-01
  5.45136396260E-01  5.51993368003E-01  5.58936589833E-01  5.65967146643E-01
  5.73086136970E-01  5.80294673173E-01  5.87593881599E-01  5.94984902764E-01
  6.02468891531E-01  6.10047017288E-01  6.17720464132E-01  6.25490431056E-01
  6.33358132132E-01  6.41324796705E-01  6.49391669582E-01  6.57560011229E-01
  6.65831097965E-01  6.74206222165E-01  6.82686692459E-01  6.91273833938E-01
  6.99968988359E-01  7.08773514359E-01  7.17688787663E-01  7.26716201300E-01
  7.35857165821E-01  7.45113109523E-01  7.54485478663E-01  7.63975737694E-01
  7.73585369489E-01  7.83315875572E-01  7.93168776354E-01  8.03145611371E-01
  8.13247939523E-01  8.23477339321E-01  8.33835409129E-01  8.44323767415E-01
  8.54944053008E-01  8.65697925349E-01  8.76587064752E-01  8.87613172667E-01
  8.98777971946E-01  9.10083207112E-01  9.21530644631E-01  9.33122073188E-01
  9.44859303967E-01  9.56744170934E-01  9.68778531125E-01  9.80964264933E-01
  9.93303276402E-01  1.00579749353E+00  1.01844886856E+00  1.03125937830E+00
  1.04423102442E+00  1.05736583375E+00  1.07066585866E+00  1.08413317727E+00
  1.09776989391E+00  1.11157813932E+00  1.12556007108E+00  1.13971787389E+00
  1.15405375994E+00  1.16856996923E+00  1.18326876996E+00  1.19815245885E+00
  1.21322336149E+00  1.22848383275E+00  1.24393625711E+00  1.25958304904E+00
  1.27542665338E+00  1.29146954573E+00  1.30771423283E+00  1.32416325294E+00
  1.34081917625E+00  1.35768460528E+00  1.37476217529E+00  1.39205455470E+00
  1.40956444545E+00  1.42729458352E+00  1.44524773928E+00  1.46342671793E+00
  1.48183435998E+00  1.50047354167E+00  1.51934717540E+00  1.53845821022E+00
  1.55780963227E+00  1.57740446524E+00  1.59724577086E+00  1.61733664939E+00
  1.63768024006E+00  1.65827972160E+00  1.67913831272E+00  1.70025927261E+00
  1.72164590148E+00  1.74330154102E+00  1.76522957498E+00  1.78743342964E+00
  1.80991657442E+00  1.83268252235E+00  1.85573483064E+00  1.87907710128E+00
  1.90271298154E+00  1.92664616458E+00  1.95088038999E+00  1.97541944444E+00
  2.00026716219E+00  2.02542742576E+00  2.05090416649E+00  2.07670136516E+00
  2.10282305264E+00  2.12927331051E+00  2.15605627166E+00  2.18317612100E+00
  2.21063709604E+00  2.23844348762E+00  2.26659964056E+00  2.29510995430E+00
  2.32397888364E+00  2.35321093941E+00  2.38281068918E+00  2.41278275796E+00
  2.44313182896E+00  2.47386264428E+00  2.50498000567E+00  2.53648877528E+00
  2.56839387642E+00  2.60070029433E+00  2.63341307696E+00  2.66653733573E+00
  2.70007824639E+00  2.73404104977E+00  2.76843105263E+00  2.80325362846E+00
  2.83851421839E+00  2.87421833193E+00  2.91037154793E+00  2.94697951542E+00
  2.98404795444E+00  3.02158265703E+00  3.05958948806E+00  3.09807438617E+00
  3.13704336470E+00  3.17650251265E+00  3.21645799557E+00  3.25691605660E+00
  3.29788301739E+00  3.33936527911E+00  3.38136932345E+00  3.42390171363E+00
  3.46696909541E+00  3.51057819817E+00  3.55473583592E+00  3.59944890837E+00
  3.64472440204E+00  3.69056939131E+00  3.73699103955E+00  3.78399660025E+00
  3.83159341812E+00  3.87978893025E+00  3.92859066730E+00  3.97800625463E+00
  4.02804341353E+00  4.07870996241E+00  4.13001381802E+00  4.18196299670E+00
  4.23456561559E+00  4.28782989399E+00  4.34176415452E+00  4.39637682454E+00
  4.45167643738E+00  4.50767163372E+00  4.56437116293E+00  4.62178388442E+00
  4.67991876904E+00  4.73878490049E+00  4.79839147672E+00  4.85874781138E+00
  4.91986333528E+00  4.98174759783E+00  5.04441026857E+00  5.10786113869E+00
  5.17211012250E+00  5.23716725904E+00  5.30304271361E+00  5.36974677940E+00
  5.43728987906E+00  5.50568256631E+00  5.57493552767E+00  5.64505958405E+00
  5.71606569247E+00  5.78796494778E+00  5.86076858440E+00  5.93448797803E+00
  6.00913464748E+00  6.08472025644E+00  6.16125661533E+00  6.23875568309E+00
  6.31722956913E+00  6.39669053513E+00  6.47715099705E+00  6.55862352699E+00
  6.64112085519E+00  6.72465587205E+00  6.80924163006E+00  6.89489134593E+00
  6.98161840261E+00  7.06943635136E+00  7.15835891392E+00  7.24839998463E+00
  7.33957363259E+00  7.43189410385E+00  7.52537582369E+00  7.62003339882E+00
  7.71588161966E+00  7.81293546271E+00  7.91121009282E+00  8.01072086560E+00
  8.11148332981E+00  8.21351322980E+00  8.31682650794E+00  8.42143930714E+00
  8.52736797336E+00  8.63462905819E+00  8.74323932137E+00  8.85321573348E+00
  8.96457547856E+00  9.07733595680E+00  9.19151478725E+00  9.30712981059E+00
  9.42419909189E+00  9.54274092348E+00  9.66277382775E+00  9.78431656009E+00
  9.90738811180E+00  1.00320077131E+01  1.01581948359E+01  1.02859691974E+01
  1.04153507625E+01  1.05463597474E+01  1.06790166224E+01  1.08133421155E+01
  1.09493572152E+01  1.10870831744E+01  1.12265415128E+01  1.13677540212E+01
  1.15107427643E+01  1.16555300843E+01  1.18021386047E+01  1.19505912332E+01
  1.21009111659E+01  1.22531218906E+01  1.24072471905E+01  1.25633111481E+01
  1.27213381485E+01  1.28813528840E+01  1.30433803570E+01  1.32074458847E+01
  1.33735751028E+01  1.35417939691E+01  1.37121287684E+01  1.38846061156E+01
  1.40592529608E+01  1.42360965928E+01  1.44151646440E+01  1.45964850939E+01
  1.47800862743E+01  1.49659968733E+01  1.51542459397E+01  1.53448628879E+01
  1.55378775021E+01  1.57333199413E+01  1.59312207438E+01  1.61316108319E+01
  1.63345215170E+01  1.65399845043E+01  1.67480318979E+01  1.69586962055E+01
  1.71720103440E+01  1.73880076439E+01  1.76067218555E+01  1.78281871531E+01
  1.80524381413E+01  1.82795098596E+01  1.85094377886E+01  1.87422578548E+01
  1.89780064370E+01  1.92167203713E+01  1.94584369573E+01  1.97031939636E+01
  1.99510296341E+01  2.02019826935E+01  2.04560923539E+01  2.07133983203E+01
  2.09739407973E+01  2.12377604952E+01  2.15048986364E+01  2.17753969618E+01
  2.20492977373E+01  2.23266437604E+01  2.26074783670E+01  2.28918454381E+01
  2.31797894066E+01  2.34713552644E+01  2.37665885691E+01  2.40655354517E+01
  2.43682426232E+01  2.46747573822E+01  2.49851276222E+01  2.52994018392E+01
  2.56176291393E+01  2.59398592460E+01  2.62661425085E+01  2.65965299092E+01
  2.69310730718E+01  2.72698242694E+01  2.76128364325E+01  2.79601631574E+01
  2.83118587148E+01  2.86679780576E+01  2.90285768304E+01  2.93937113774E+01
  2.97634387515E+01  3.01378167235E+01  3.05169037907E+01  3.09007591862E+01
  3.12894428882E+01  3.16830156293E+01  3.20815389061E+01  3.24850749886E+01
  3.28936869301E+01  3.33074385771E+01  3.37263945792E+01  3.41506203991E+01
  3.45801823229E+01  3.50151474705E+01  3.54555838061E+01  3.59015601489E+01
  3.63531461834E+01  3.68104124711E+01  3.72734304605E+01  3.77422724993E+01
  3.82170118450E+01  3.86977226765E+01  3.91844801059E+01  3.96773601901E+01
  4.01764399425E+01  4.06817973454E+01  4.11935113619E+01  4.17116619483E+01
  4.22363300668E+01  4.27675976978E+01  4.33055478530E+01  4.38502645881E+01
  4.44018330162E+01  4.49603393212E+01  4.55258707706E+01  4.60985157299E+01
  4.66783636761E+01  4.72655052116E+01  4.78600320784E+01  4.84620371727E+01
  4.90716145588E+01  4.96888594846E+01  5.03138683957E+01  5.09467389511E+01
  5.15875700382E+01  5.22364617880E+01  5.28935155913E+01  5.35588341139E+01
  5.42325213134E+01  5.49146824547E+01  5.56054241268E+01  5.63048542596E+01
  5.70130821404E+01  5.77302184313E+01  5.84563751862E+01  5.91916658688E+01
  5.99362053695E+01  6.06901100243E+01  6.14534976322E+01  6.22264874742E+01
  6.30092003314E+01  6.38017585044E+01  6.46042858320E+01  6.54169077106E+01
  6.62397511142E+01  6.70729446136E+01  6.79166183971E+01  6.87709042905E+01
  6.96359357775E+01  7.05118480211E+01  7.13987778845E+01  7.22968639522E+01
  7.32062465520E+01  7.41270677767E+01  7.50594715066E+01  7.60036034316E+01
  7.69596110743E+01  7.79276438127E+01  7.89078529041E+01  7.99003915080E+01
  8.09054147107E+01  8.19230795490E+01  8.29535450352E+01  8.39969721815E+01
  8.50535240257E+01  8.61233656560E+01  8.72066642374E+01  8.83035890375E+01
  8.94143114531E+01  9.05390050368E+01  9.16778455242E+01  9.28310108614E+01
  9.39986812330E+01  9.51810390898E+01  9.63782691776E+01  9.75905585660E+01
  9.88180966777E+01
  </PP_R>
  <PP_RAB>
  1.39006397188E-07  1.40754882419E-07  1.42525360887E-07  1.44318109232E-07
  1.46133407575E-07  1.47971539561E-07  1.49832792401E-07  1.51717456919E-07
  1.53625827599E-07  1.55558202627E-07  1.57514883940E-07  1.59496177275E-07
  1.61502392212E-07  1.63533842226E-07  1.65590844735E-07  1.67673721151E-07
  1.69782796928E-07  1.71918401611E-07  1.74080868895E-07  1.76270536668E-07
  1.78487747072E-07  1.80732846549E-07  1.83006185901E-07  1.85308120342E-07
  1.87639009554E-07  1.89999217743E-07  1.92389113696E-07  1.94809070839E-07
  1.97259467297E-07  1.99740685947E-07  2.02253114486E-07  2.04797145485E-07
  2.07373176455E-07  2.09981609906E-07  2.12622853411E-07  2.15297319669E-07
  2.18005426571E-07  2.20747597265E-07  2.23524260220E-07  2.26335849295E-07
  2.29182803808E-07  2.32065568599E-07  2.34984594108E-07  2.37940336438E-07
  2.40933257429E-07  2.43963824732E-07  2.47032511879E-07  2.50139798359E-07
  2.53286169691E-07  2.56472117503E-07  2.59698139604E-07  2.62964740068E-07
  2.66272429308E-07  2.69621724157E-07  2.73013147948E-07  2.76447230600E-07
  2.79924508693E-07  2.83445525561E-07  2.87010831369E-07  2.90620983203E-07
  2.94276545157E-07  2.97978088419E-07  3.01726191365E-07  3.05521439641E-07
  3.09364426265E-07  3.13255751709E-07  3.17196024001E-07  3.21185858818E-07
  3.25225879579E-07  3.29316717545E-07  3.33459011918E-07  3.37653409940E-07
  3.41900566995E-07  3.46201146708E-07  3.50555821056E-07  3.54965270463E-07
  3.59430183916E-07  3.63951259067E-07  3.68529202342E-07  3.73164729055E-07
  3.77858563516E-07  3.82611439147E-07  3.87424098593E-07  3.92297293843E-07
  3.97231786343E-07  4.02228347118E-07  4.07287756890E-07  4.12410806203E-07
  4.17598295544E-07  4.22851035468E-07  4.28169846726E-07  4.33555560395E-07
  4.39009018001E-07  4.44531071660E-07  4.50122584203E-07  4.55784429316E-07
  4.61517491673E-07  4.67322667077E-07  4.73200862599E-07  4.79152996718E-07
  4.85179999468E-07  4.91282812580E-07  4.97462389631E-07  5.03719696192E-07
  5.10055709980E-07  5.16471421011E-07  5.22967831753E-07  5.29545957282E-07
  5.36206825444E-07  5.42951477014E-07  5.49780965856E-07  5.56696359093E-07
  5.63698737269E-07  5.70789194519E-07  5.77968838742E-07  5.85238791772E-07
  5.92600189554E-07  6.00054182322E-07  6.07601934776E-07  6.15244626268E-07
  6.22983450985E-07  6.30819618134E-07  6.38754352132E-07  6.46788892796E-07
  6.54924495542E-07  6.63162431571E-07  6.71503988081E-07  6.79950468454E-07
  6.88503192471E-07  6.97163496514E-07  7.05932733770E-07  7.14812274453E-07
  7.23803506008E-07  7.32907833333E-07  7.42126678998E-07  7.51461483467E-07
  7.60913705322E-07  7.70484821491E-07  7.80176327481E-07  7.89989737609E-07
  7.99926585241E-07  8.09988423030E-07  8.20176823157E-07  8.30493377582E-07
  8.40939698287E-07  8.51517417530E-07  8.62228188103E-07  8.73073683584E-07
  8.84055598604E-07  8.95175649110E-07  9.06435572633E-07  9.17837128558E-07
  9.29382098402E-07  9.41072286089E-07  9.52909518236E-07  9.64895644434E-07
  9.77032537539E-07  9.89322093966E-07  1.00176623398E-06  1.01436690201E-06
  1.02712606693E-06  1.04004572239E-06  1.05312788711E-06  1.06637460521E-06
  1.07978794650E-06  1.09337000686E-06  1.10712290851E-06  1.12104880036E-06
  1.13514985837E-06  1.14942828586E-06  1.16388631385E-06  1.17852620145E-06
  1.19335023616E-06  1.20836073428E-06  1.22356004122E-06  1.23895053190E-06
  1.25453461113E-06  1.27031471394E-06  1.28629330601E-06  1.30247288403E-06
  1.31885597609E-06  1.33544514207E-06  1.35224297407E-06  1.36925209679E-06
  1.38647516794E-06  1.40391487865E-06  1.42157395392E-06  1.43945515301E-06
  1.45756126990E-06  1.47589513370E-06  1.49445960912E-06  1.51325759689E-06
  1.53229203424E-06  1.55156589534E-06  1.57108219177E-06  1.59084397298E-06