<UPF version="2.0.1">
  <PP_INFO>
    Generated using "atomic" code by A. Dal Corso  v.7.2
    Author: TM
    Generation date: 10Nov2023
    Pseudopotential type: NC
    Element: Pd
    Functional: PBE
    Suggested minimum cutoff for wavefunctions:   0. Ry
    Suggested minimum cutoff for charge density:   0. Ry
    The Pseudo was generated with a Scalar-Relativistic Calculation
    Local Potential by smoothing AE potential with Bessel fncs, cutoff radius:   1.2600
    Pseudopotential contains additional information for GIPAW reconstruction.
    Valence configuration: 
    nl pn  l   occ       Rcut    Rcut US       E pseu
    4S  1  0  2.00      1.000      1.000    -6.803341
    5S  2  0  2.00      1.000      1.000    -0.399428
    4P  2  1  6.00      1.000      1.000    -4.276966
    5P  3  1  0.00      1.000      1.000    -0.093639
    4D  3  2  8.00      1.000      1.000    -0.712278
    Generation configuration:
    4S  1  0  2.00      1.000      1.000    -6.805803
    5S  2  0  2.00      1.000      1.000    -0.399752
    4P  2  1  6.00      1.000      1.000    -4.276871
    5P  3  1  0.00      1.000      1.000    -0.093639
    4D  3  2  8.00      1.000      1.000    -0.712393
    4D  3  2 -1.00      1.000      1.000     0.500000
    Pseudization used: troullier-martins
    <PP_INPUTFILE>
@input
title='Pd',
zed=46.0,
rel=1,
config='[Kr] 5s2 5p0 4d8 5d0',
iswitch=3,
dft='pbe'
verbosity='high'
xmin = -8.0, dx = 0.01
nld = 4, rlderiv = 2.3, eminld  = -5.0, emaxld  = 5.0, deld = 0.002
/
@inputp
pseudotype=2,
file_pseudopw='Pd.semicore-nc-gipaw.UPF',
author='TM',
lloc=-1,
rcloc = 1.26,
nlcc=.true.,
new_core_ps = .true.
rcore = 0.8
file_core = 'pd.core'
tm=.true.
lgipaw_reconstruction = .true.
/
6
4S  1  0  2.0  0.00  1.00  1.22
5S  2  0  2.0  0.00  1.00  1.22
4P  2  1  6.0  0.00  1.00  1.22
5P  3  1  0.0  0.00  1.00  1.22
4D  3  2  8.0  0.00  1.00  1.22
4D  3  2 -1.0  0.50  1.00  1.22
@test
ecutmin = 40
ecutmax = 90
decut   = 10
/
6
4S  1  0  2.0  0.00  1.00  1.22
5S  2  0  2.0  0.00  1.00  1.22
4P  2  1  6.0  0.00  1.00  1.22
5P  3  1  0.0  0.00  1.00  1.22
4D  3  2  8.0  0.00  1.00  1.22
5D  4  2 -1.0  0.50  1.00  1.22
    </PP_INPUTFILE>
  </PP_INFO>
    <!-- END OF HUMAN READABLE SECTION -->
  <PP_HEADER generated="Generated using 'atomic' code by A. Dal Corso  v.7.2" author="TM" date="10Nov2023" comment="" element="Pd" pseudo_type="NC" relativistic="scalar" is_ultrasoft="false" is_paw="false" is_coulomb="false" has_so="false" has_wfc="false" has_gipaw="true" paw_as_gipaw="false" core_correction="true" functional="PBE" z_valence="18.000000000000000" total_psenergy="-277.86444445878220" wfc_cutoff="0.0000000000000000" rho_cutoff="0.0000000000000000" l_max="2" l_max_rho="4" l_local="-1" mesh_size="1645" number_of_wfc="6" number_of_proj="6"/>
  <PP_MESH mesh="1645" dx="1.0000000000000000E-002" xmin="-8.0000000000000000" rmax="100.00000000000000" zmesh="46.000000000000000">
    <PP_R>
   7.292665823967649E-06   7.365958333987524E-06   7.439987445979117E-06
   7.514760562915324E-06   7.590285162170139E-06   7.666568796266429E-06
   7.743619093631175E-06   7.821443759358327E-06   7.900050575979301E-06
   7.979447404241269E-06   8.059642183893223E-06   8.140642934479964E-06
   8.222457756144039E-06   8.305094830435799E-06   8.388562421131536E-06
   8.472868875059887E-06   8.558022622936485E-06   8.644032180207084E-06
   8.730906147899089E-06   8.818653213481670E-06   8.907282151734497E-06
   8.996801825625253E-06   9.087221187195934E-06   9.178549278458051E-06
   9.270795232296823E-06   9.363968273384512E-06   9.458077719102872E-06
   9.553132980474902E-06   9.649143563105956E-06   9.746119068134295E-06
   9.844069193191239E-06   9.943003733370920E-06   1.004293258220981E-05
   1.014386573267605E-05   1.024581327816881E-05   1.034878541352759E-05
   1.045279243605176E-05   1.055784474653020E-05   1.066395285028153E-05
   1.077112735820455E-05   1.087937898783937E-05   1.098871856443914E-05
   1.109915702205265E-05   1.121070540461769E-05   1.132337486706549E-05
   1.143717667643617E-05   1.155212221300550E-05   1.166822297142293E-05
   1.178549056186107E-05   1.190393671117666E-05   1.202357326408334E-05
   1.214441218433611E-05   1.226646555592769E-05   1.238974558429697E-05
   1.251426459754948E-05   1.264003504769034E-05   1.276706951186938E-05
   1.289538069363885E-05   1.302498142422387E-05   1.315588466380550E-05
   1.328810350281679E-05   1.342165116325183E-05   1.355654099998792E-05
   1.369278650212117E-05   1.383040129431533E-05   1.396939913816430E-05
   1.410979393356829E-05   1.425159972012382E-05   1.439483067852775E-05
   1.453950113199527E-05   1.468562554769227E-05   1.483321853818210E-05
   1.498229486288681E-05   1.513286942956310E-05   1.528495729579311E-05
   1.543857367049020E-05   1.559373391541986E-05   1.575045354673588E-05
   1.590874823653202E-05   1.606863381440912E-05   1.623012626905824E-05
   1.639324174985944E-05   1.655799656849668E-05   1.672440720058915E-05
   1.689249028733873E-05   1.706226263719417E-05   1.723374122753194E-05
   1.740694320635394E-05   1.758188589400242E-05   1.775858678489192E-05
   1.793706354925880E-05   1.811733403492818E-05   1.829941626909889E-05
   1.848332846014607E-05   1.866908899944211E-05   1.885671646319571E-05
   1.904622961430960E-05   1.923764740425684E-05   1.943098897497595E-05
   1.962627366078508E-05   1.982352099031557E-05   2.002275068846475E-05
   2.022398267836846E-05   2.042723708339339E-05   2.063253422914941E-05
   2.083989464552217E-05   2.104933906872614E-05   2.126088844337814E-05
   2.147456392459194E-05   2.169038688009374E-05   2.190837889235892E-05
   2.212856176077041E-05   2.235095750379847E-05   2.257558836120279E-05
   2.280247679625629E-05   2.303164549799152E-05   2.326311738346966E-05
   2.349691560007214E-05   2.373306352781545E-05   2.397158478168917E-05
   2.421250321401746E-05   2.445584291684429E-05   2.470162822434273E-05
   2.494988371524840E-05   2.520063421531721E-05   2.545390479980814E-05
   2.570972079599071E-05   2.596810778567772E-05   2.622909160778349E-05
   2.649269836090766E-05   2.675895440594524E-05   2.702788636872264E-05
   2.729952114266021E-05   2.757388589146172E-05   2.785100805183068E-05
   2.813091533621409E-05   2.841363573557364E-05   2.869919752218484E-05
   2.898762925246433E-05   2.927895976982553E-05   2.957321820756291E-05
   2.987043399176547E-05   3.017063684425932E-05   3.047385678557988E-05
   3.078012413797396E-05   3.108946952843205E-05   3.140192389175094E-05
   3.171751847362736E-05   3.203628483378253E-05   3.235825484911803E-05
   3.268346071690375E-05   3.301193495799747E-05   3.334371042009702E-05
   3.367882028102514E-05   3.401729805204710E-05   3.435917758122211E-05
   3.470449305678802E-05   3.505327901058008E-05   3.540557032148436E-05
   3.576140221892554E-05   3.612081028638986E-05   3.648383046498364E-05
   3.685049905702718E-05   3.722085272968528E-05   3.759492851863385E-05
   3.797276383176347E-05   3.835439645292034E-05   3.873986454568460E-05
   3.912920665718676E-05   3.952246172196242E-05   3.991966906584581E-05
   4.032086840990224E-05   4.072609987440051E-05   4.113540398282478E-05
   4.154882166592690E-05   4.196639426581976E-05   4.238816354011132E-05
   4.281417166608047E-05   4.324446124489486E-05   4.367907530587087E-05
   4.411805731077682E-05   4.456145115817907E-05   4.500930118783175E-05
   4.546165218511110E-05   4.591854938549379E-05   4.638003847908061E-05
   4.684616561516554E-05   4.731697740685056E-05   4.779252093570720E-05
   4.827284375648469E-05   4.875799390186529E-05   4.924801988726787E-05
   4.974297071569933E-05   5.024289588265498E-05   5.074784538106811E-05
   5.125786970630941E-05   5.177301986123632E-05   5.229334736129368E-05
   5.281890423966516E-05   5.334974305247646E-05   5.388591688405127E-05
   5.442747935221957E-05   5.497448461367947E-05   5.552698736941301E-05
   5.608504287015608E-05   5.664870692192388E-05   5.721803589159131E-05
   5.779308671252972E-05   5.837391689030044E-05   5.896058450840529E-05
   5.955314823409497E-05   6.015166732423584E-05   6.075620163123573E-05
   6.136681160902906E-05   6.198355831912249E-05   6.260650343670094E-05
   6.323570925679530E-05   6.387123870051196E-05   6.451315532132488E-05
   6.516152331143106E-05   6.581640750816990E-05   6.647787340050668E-05
   6.714598713558200E-05   6.782081552532598E-05   6.850242605314004E-05
   6.919088688064493E-05   6.988626685449717E-05   7.058863551327362E-05
   7.129806309442550E-05   7.201462054130201E-05   7.273837951024511E-05
   7.346941237775469E-05   7.420779224772675E-05   7.495359295876362E-05
   7.570688909155790E-05   7.646775597635062E-05   7.723626970046432E-05
   7.801250711591191E-05   7.879654584708164E-05   7.958846429850018E-05
   8.038834166267244E-05   8.119625792800147E-05   8.201229388678707E-05
   8.283653114330515E-05   8.366905212196826E-05   8.450994007556805E-05
   8.535927909360053E-05   8.621715411067540E-05   8.708365091500914E-05
   8.795885615700433E-05   8.884285735791450E-05   8.973574291859643E-05
   9.063760212835025E-05   9.154852517384859E-05   9.246860314815490E-05
   9.339792805983355E-05   9.433659284214998E-05   9.528469136236470E-05
   9.624231843111982E-05   9.720956981192026E-05   9.818654223071013E-05
   9.917333338554548E-05   1.001700419563642E-04   1.011767676148537E-04
   1.021936110344191E-04   1.032206739002495E-04   1.042580589194874E-04
   1.053058698314993E-04   1.063642114182495E-04   1.074331895147786E-04
   1.085129110197873E-04   1.096034839063256E-04   1.107050172325912E-04
   1.118176211528344E-04   1.129414069283746E-04   1.140764869387257E-04
   1.152229746928348E-04   1.163809848404327E-04   1.175506331834991E-04
   1.187320366878430E-04   1.199253134947995E-04   1.211305829330434E-04
   1.223479655305232E-04   1.235775830265129E-04   1.248195583837870E-04
   1.260740158009161E-04   1.273410807246873E-04   1.286208798626491E-04
   1.299135411957814E-04   1.312191939912950E-04   1.325379688155574E-04
   1.338699975471499E-04   1.352154133900559E-04   1.365743508869808E-04
   1.379469459328067E-04   1.393333357881822E-04   1.407336590932479E-04
   1.421480558815015E-04   1.435766675938003E-04   1.450196370925060E-04
   1.464771086757710E-04   1.479492280919683E-04   1.494361425542663E-04
   1.509380007553503E-04   1.524549528822918E-04   1.539871506315679E-04
   1.555347472242301E-04   1.570978974212274E-04   1.586767575388822E-04
   1.602714854645220E-04   1.618822406722682E-04   1.635091842389840E-04
   1.651524788603819E-04   1.668122888672932E-04   1.684887802421022E-04
   1.701821206353429E-04   1.718924793824661E-04   1.736200275207718E-04
   1.753649378065134E-04   1.771273847321735E-04   1.789075445439137E-04
   1.807055952591982E-04   1.825217166845973E-04   1.843560904337667E-04
   1.862088999456100E-04   1.880803305026225E-04   1.899705692494194E-04
   1.918798052114505E-04   1.938082293139033E-04   1.957560344007948E-04
   1.977234152542571E-04   1.997105686140146E-04   2.017176931970596E-04
   2.037449897175230E-04   2.057926609067462E-04   2.078609115335545E-04
   2.099499484247341E-04   2.120599804857153E-04   2.141912187214621E-04
   2.163438762575745E-04   2.185181683615997E-04   2.207143124645601E-04
   2.229325281826961E-04   2.251730373394282E-04   2.274360639875390E-04
   2.297218344315794E-04   2.320305772504984E-04   2.343625233205020E-04
   2.367179058381402E-04   2.390969603436278E-04   2.414999247443979E-04
   2.439270393388931E-04   2.463785468405954E-04   2.488546924022981E-04
   2.513557236406203E-04   2.538818906607707E-04   2.564334460815559E-04
   2.590106450606445E-04   2.616137453200821E-04   2.642430071720638E-04
   2.668986935449660E-04   2.695810700096391E-04   2.722904048059649E-04
   2.750269688696805E-04   2.777910358594733E-04   2.805828821843451E-04
   2.834027870312551E-04   2.862510323930381E-04   2.891279030966037E-04
   2.920336868314196E-04   2.949686741782812E-04   2.979331586383683E-04
   3.009274366625981E-04   3.039518076812676E-04   3.070065741339992E-04
   3.100920414999838E-04   3.132085183285293E-04   3.163563162699158E-04
   3.195357501065605E-04   3.227471377844963E-04   3.259908004451677E-04
   3.292670624575433E-04   3.325762514505547E-04   3.359186983458591E-04
   3.392947373909311E-04   3.427047061924888E-04   3.461489457502540E-04
   3.496278004910529E-04   3.531416183032581E-04   3.566907505715796E-04
   3.602755522122012E-04   3.638963817082746E-04   3.675536011457669E-04
   3.712475762496694E-04   3.749786764205710E-04   3.787472747715981E-04
   3.825537481657259E-04   3.863984772534665E-04   3.902818465109319E-04
   3.942042442782842E-04   3.981660627985691E-04   4.021676982569400E-04
   4.062095508202778E-04   4.102920246772064E-04   4.144155280785138E-04
   4.185804733779765E-04   4.227872770735957E-04   4.270363598492456E-04
   4.313281466167454E-04   4.356630665583481E-04   4.400415531696605E-04
   4.444640443029927E-04   4.489309822111428E-04   4.534428135916243E-04
   4.579999896313353E-04   4.626029660516777E-04   4.672522031541288E-04
   4.719481658662733E-04   4.766913237882959E-04   4.814821512399418E-04
   4.863211273079478E-04   4.912087358939536E-04   4.961454657628906E-04
   5.011318105918605E-04   5.061682690195002E-04   5.112553446958502E-04
   5.163935463327173E-04   5.215833877545475E-04   5.268253879498070E-04
   5.321200711228841E-04   5.374679667465084E-04   5.428696096146993E-04
   5.483255398962439E-04   5.538363031887178E-04   5.594024505730422E-04
   5.650245386685948E-04   5.707031296888689E-04   5.764387914976996E-04
   5.822320976660473E-04   5.880836275293566E-04   5.939939662454906E-04
   5.999637048532453E-04   6.059934403314568E-04   6.120837756586978E-04
   6.182353198735765E-04   6.244486881356398E-04   6.307245017868925E-04
   6.370633884139293E-04   6.434659819106959E-04   6.499329225418765E-04
   6.564648570069239E-04   6.630624385047279E-04   6.697263267989367E-04
   6.764571882839321E-04   6.832556960514720E-04   6.901225299579986E-04
   6.970583766926257E-04   7.040639298458055E-04   7.111398899786917E-04
   7.182869646931942E-04   7.255058687027413E-04   7.327973239037482E-04
   7.401620594478118E-04   7.476008118146242E-04   7.551143248856207E-04
   7.627033500183704E-04   7.703686461217095E-04   7.781109797316369E-04
   7.859311250879655E-04   7.938298642117482E-04   8.018079869834785E-04
   8.098662912220828E-04   8.180055827647000E-04   8.262266755472682E-04
   8.345303916859147E-04   8.429175615591742E-04   8.513890238910232E-04
   8.599456258347553E-04   8.685882230576938E-04   8.773176798267641E-04
   8.861348690949177E-04   8.950406725884294E-04   9.040359808950691E-04
   9.131216935531641E-04   9.222987191415519E-04   9.315679753704392E-04
   9.409303891731721E-04   9.503868967989335E-04   9.599384439063666E-04
   9.695859856581416E-04   9.793304868164743E-04   9.891729218395994E-04
   9.991142749792218E-04   1.009155540378940E-03   1.019297722173663E-03
   1.029541834590020E-03   1.039888902047791E-03   1.050339959262343E-03
   1.060896051348108E-03   1.071558233923091E-03   1.082327573214433E-03
   1.093205146165040E-03   1.104192040541272E-03   1.115289355041720E-03
   1.126498199407083E-03   1.137819694531139E-03   1.149254972572834E-03
   1.160805177069502E-03   1.172471463051218E-03   1.184254997156301E-03
   1.196156957747984E-03   1.208178535032241E-03   1.220320931176820E-03
   1.232585360431454E-03   1.244973049249290E-03   1.257485236409532E-03
   1.270123173141322E-03   1.282888123248866E-03   1.295781363237812E-03
   1.308804182442904E-03   1.321957883156913E-03   1.335243780760872E-03
   1.348663203855615E-03   1.362217494394634E-03   1.375908007818277E-03
   1.389736113189295E-03   1.403703193329749E-03   1.417810644959295E-03
   1.432059878834847E-03   1.446452319891671E-03   1.460989407385864E-03
   1.475672595038293E-03   1.490503351179955E-03   1.505483158898826E-03
   1.520613516188160E-03   1.535895936096296E-03   1.551331946877958E-03
   1.566923092147089E-03   1.582670931031209E-03   1.598577038327328E-03
   1.614643004659433E-03   1.630870436637543E-03   1.647260957018380E-03
   1.663816204867641E-03   1.680537835723908E-03   1.697427521764199E-03
   1.714486951971194E-03   1.731717832302131E-03   1.749121885859401E-03
   1.766700853062863E-03   1.784456491823887E-03   1.802390577721145E-03
   1.820504904178174E-03   1.838801282642712E-03   1.857281542767853E-03
   1.875947532595011E-03   1.894801118738725E-03   1.913844186573317E-03
   1.933078640421442E-03   1.952506403744514E-03   1.972129419335055E-03
   1.991949649510976E-03   2.011969076311811E-03   2.032189701696923E-03
   2.052613547745702E-03   2.073242656859775E-03   2.094079091967240E-03
   2.115124936728973E-03   2.136382295746989E-03   2.157853294774907E-03
   2.179540080930516E-03   2.201444822910509E-03   2.223569711207336E-03
   2.245916958328266E-03   2.268488799016631E-03   2.291287490475312E-03
   2.314315312592452E-03   2.337574568169457E-03   2.361067583151261E-03
   2.384796706858944E-03   2.408764312224649E-03   2.432972796028890E-03
   2.457424579140215E-03   2.482122106757315E-03   2.507067848653533E-03
   2.532264299423848E-03   2.557713978734332E-03   2.583419431574123E-03
   2.609383228509929E-03   2.635607965943079E-03   2.662096266369173E-03
   2.688850778640322E-03   2.715874178230052E-03   2.743169167500842E-03
   2.770738475974365E-03   2.798584860604440E-03   2.826711106052737E-03
   2.855120024967240E-03   2.883814458263517E-03   2.912797275408804E-03
   2.942071374708972E-03   2.971639683598344E-03   3.001505158932454E-03
   3.031670787283717E-03   3.062139585240109E-03   3.092914599706816E-03
   3.123998908210934E-03   3.155395619209212E-03   3.187107872398916E-03
   3.219138839031792E-03   3.251491722231198E-03   3.284169757312411E-03
   3.317176212106171E-03   3.350514387285465E-03   3.384187616695596E-03
   3.418199267687558E-03   3.452552741454798E-03   3.487251473373320E-03
   3.522298933345233E-03   3.557698626145742E-03   3.593454091773621E-03
   3.629568905805233E-03   3.666046679752075E-03   3.702891061421946E-03
   3.740105735283708E-03   3.777694422835764E-03   3.815660882978192E-03
   3.854008912388649E-03   3.892742345902028E-03   3.931865056893959E-03
   3.971380957668144E-03   4.011293999847594E-03   4.051608174769783E-03
   4.092327513885800E-03   4.133456089163489E-03   4.174998013494657E-03
   4.216957441106347E-03   4.259338567976291E-03   4.302145632252493E-03
   4.345382914677056E-03   4.389054739014249E-03   4.433165472482902E-03
   4.477719526193118E-03   4.522721355587400E-03   4.568175460886192E-03
   4.614086387537893E-03   4.660458726673433E-03   4.707297115565370E-03
   4.754606238091627E-03   4.802390825203875E-03   4.850655655400648E-03
   4.899405555205188E-03   4.948645399648105E-03   4.998380112754867E-03
   5.048614668038236E-03   5.099354088995600E-03   5.150603449611345E-03
   5.202367874864231E-03   5.254652541239923E-03   5.307462677248632E-03
   5.360803563947970E-03   5.414680535471049E-03   5.469098979559924E-03
   5.524064338104354E-03   5.579582107686001E-03   5.635657840128079E-03
   5.692297143050566E-03   5.749505680430956E-03   5.807289173170659E-03
   5.865653399667109E-03   5.924604196391579E-03   5.984147458472877E-03
   6.044289140286828E-03   6.105035256051737E-03   6.166391880429793E-03
   6.228365149134567E-03   6.290961259544577E-03   6.354186471323033E-03
   6.418047107043788E-03   6.482549552823639E-03   6.547700258960914E-03
   6.613505740580526E-03   6.679972578285463E-03   6.747107418814892E-03
   6.814916975708810E-03   6.883408029979421E-03   6.952587430789217E-03
   7.022462096135934E-03   7.093039013544336E-03   7.164325240764984E-03
   7.236327906479992E-03   7.309054211015943E-03   7.382511427063893E-03
   7.456706900406665E-03   7.531648050653425E-03   7.607342371981640E-03
   7.683797433886525E-03   7.761020881937984E-03   7.839020438545185E-03
   7.917803903728770E-03   7.997379155900920E-03   8.077754152653166E-03
   8.158936931552169E-03   8.240935610943455E-03   8.323758390763306E-03
   8.407413553358721E-03   8.491909464315680E-03   8.577254573295679E-03
   8.663457414880744E-03   8.750526609426868E-03   8.838470863926072E-03
   8.927298972877079E-03   9.017019819164813E-03   9.107642374948672E-03
   9.199175702559763E-03   9.291628955407106E-03   9.385011378893037E-03
   9.479332311337730E-03   9.574601184913024E-03   9.670827526585681E-03
   9.768020959070036E-03   9.866191201790345E-03   9.965348071852682E-03
   1.006550148502670E-02   1.016666145673716E-02   1.026883810306554E-02
   1.037204164176161E-02   1.047628239326527E-02   1.058157078173852E-02
   1.068791733610794E-02   1.079533269111760E-02   1.090382758839252E-02
   1.101341287751282E-02   1.112409951709875E-02   1.123589857590650E-02
   1.134882123393514E-02   1.146287878354454E-02   1.157808263058472E-02
   1.169444429553640E-02   1.181197541466305E-02   1.193068774117449E-02
   1.205059314640233E-02   1.217170362098700E-02   1.229403127607689E-02
   1.241758834453946E-02   1.254238718218450E-02   1.266844026899978E-02
   1.279576021039902E-02   1.292435973848249E-02   1.305425171331013E-02
   1.318544912418768E-02   1.331796509096556E-02   1.345181286535090E-02
   1.358700583223263E-02   1.372355751102013E-02   1.386148155699507E-02
   1.400079176267699E-02   1.414150205920254E-02   1.428362651771863E-02
   1.442717935078955E-02   1.457217491381825E-02   1.471862770648184E-02
   1.486655237418165E-02   1.501596370950771E-02   1.516687665371808E-02
   1.531930629823290E-02   1.547326788614369E-02   1.562877681373753E-02
   1.578584863203675E-02   1.594449904835412E-02   1.610474392786343E-02
   1.626659929518620E-02   1.643008133599403E-02   1.659520639862725E-02
   1.676199099572970E-02   1.693045180590011E-02   1.710060567535985E-02
   1.727246961963770E-02   1.744606082527128E-02   1.762139665152581E-02
   1.779849463213004E-02   1.797737247702963E-02   1.815804807415809E-02
   1.834053949122573E-02   1.852486497752633E-02   1.871104296576214E-02
   1.889909207388709E-02   1.908903110696872E-02   1.928087905906864E-02
   1.947465511514193E-02   1.967037865295565E-02   1.986806924502670E-02
   2.006774666057904E-02   2.026943086752063E-02   2.047314203444020E-02
   2.067890053262422E-02   2.088672693809398E-02   2.109664203366322E-02
   2.130866681101643E-02   2.152282247280801E-02   2.173913043478261E-02
   2.195761232791670E-02   2.217829000058164E-02   2.240118552072861E-02
   2.262632117809541E-02   2.285371948643532E-02   2.308340318576870E-02
   2.331539524465689E-02   2.354971886249910E-02   2.378639747185239E-02
   2.402545474077494E-02   2.426691457519284E-02   2.451080112129080E-02
   2.475713876792658E-02   2.500595214907017E-02   2.525726614626703E-02
   2.551110589112631E-02   2.576749676783403E-02   2.602646441569152E-02
   2.628803473167936E-02   2.655223387304715E-02   2.681908825992923E-02
   2.708862457798656E-02   2.736086978107561E-02   2.763585109394359E-02
   2.791359601495090E-02   2.819413231882112E-02   2.847748805941841E-02
   2.876369157255296E-02   2.905277147881464E-02   2.934475668643487E-02
   2.963967639417779E-02   2.993756009425994E-02   3.023843757529957E-02
   3.054233892529551E-02   3.084929453463602E-02   3.115933509913782E-02
   3.147249162311578E-02   3.178879542248316E-02   3.210827812788355E-02
   3.243097168785371E-02   3.275690837201856E-02   3.308612077431812E-02
   3.341864181626698E-02   3.375450475024642E-02   3.409374316282973E-02
   3.443639097814094E-02   3.478248246124699E-02   3.513205222158466E-02
   3.548513521642129E-02   3.584176675435061E-02   3.620198249882361E-02
   3.656581847171491E-02   3.693331105692499E-02   3.730449700401870E-02
   3.767941343189992E-02   3.805809783252395E-02   3.844058807464643E-02
   3.882692240761029E-02   3.921713946517080E-02   3.961127826935888E-02
   4.000937823438340E-02   4.041147917057270E-02   4.081762128835532E-02
   4.122784520228157E-02   4.164219193508471E-02   4.206070292178330E-02
   4.248342001382477E-02   4.291038548327059E-02   4.334164202702351E-02
   4.377723277109737E-02   4.421720127492940E-02   4.466159153573672E-02
   4.511044799291573E-02   4.556381553248620E-02   4.602173949157989E-02
   4.648426566297430E-02   4.695144029967205E-02   4.742331011952608E-02
   4.789992230991171E-02   4.838132453244498E-02   4.886756492774941E-02
   4.935869212026971E-02   4.985475522313441E-02   5.035580384306720E-02
   5.086188808534762E-02   5.137305855882159E-02   5.188936638096259E-02
   5.241086318298286E-02   5.293760111499730E-02   5.346963285123806E-02
   5.400701159532210E-02   5.454979108557168E-02   5.509802560038813E-02
   5.565176996367979E-02   5.621107955034454E-02   5.677601029180696E-02
   5.734661868161205E-02   5.792296178107431E-02   5.850509722498397E-02
   5.909308322737054E-02   5.968697858732426E-02   6.028684269487602E-02
   6.089273553693646E-02   6.150471770329483E-02   6.212285039267752E-02
   6.274719541886870E-02   6.337781521689125E-02   6.401477284925053E-02
   6.465813201224054E-02   6.530795704231374E-02   6.596431292251466E-02
   6.662726528897837E-02   6.729688043749378E-02   6.797322533013386E-02
   6.865636760195150E-02   6.934637556774315E-02   7.004331822888042E-02
   7.074726528021022E-02   7.145828711702427E-02   7.217645484209893E-02
   7.290184027280493E-02   7.363451594828993E-02   7.437455513673207E-02
   7.512203184266687E-02   7.587702081438785E-02   7.663959755142134E-02
   7.740983831207650E-02   7.818782012107128E-02   7.897362077723505E-02
   7.976731886128798E-02   8.056899374370001E-02   8.137872559262747E-02
   8.219659538193003E-02   8.302268489926816E-02   8.385707675428203E-02
   8.469985438685244E-02   8.555110207544515E-02   8.641090494553808E-02
   8.727934897813486E-02   8.815652101836254E-02   8.904250878415601E-02
   8.993740087503026E-02   9.084128678094011E-02   9.175425689122936E-02
   9.267640250367004E-02   9.360781583359153E-02   9.454859002310313E-02
   9.549881915040780E-02   9.645859823921012E-02   9.742802326821880E-02
   9.840719118074459E-02   9.939619989439472E-02   1.003951483108647E-01
   1.014041363258289E-01   1.024232648389292E-01   1.034526357638665E-01
   1.044923520385909E-01   1.055425176355964E-01   1.066032375723178E-01
   1.076746179216329E-01   1.087567658224693E-01   1.098497894905190E-01
   1.109537982290593E-01   1.120689024398844E-01   1.131952136343446E-01
   1.143328444444978E-01   1.154819086343732E-01   1.166425211113472E-01
   1.178147979376349E-01   1.189988563418958E-01   1.201948147309567E-01
   1.214027927016534E-01   1.226229110527896E-01   1.238552917972172E-01
   1.251000581740376E-01   1.263573346609258E-01   1.276272469865782E-01
   1.289099221432857E-01   1.302054883996330E-01   1.315140753133250E-01
   1.328358137441437E-01   1.341708358670338E-01   1.355192751853199E-01
   1.368812665440577E-01   1.382569461435180E-01   1.396464515528072E-01
   1.410499217236243E-01   1.424674970041555E-01   1.438993191531105E-01
   1.453455313538972E-01   1.468062782289410E-01   1.482817058541467E-01
   1.497719617735063E-01   1.512771950138537E-01   1.527975560997674E-01
   1.543331970686226E-01   1.558842714857960E-01   1.574509344600221E-01
   1.590333426589036E-01   1.606316543245793E-01   1.622460292895477E-01
   1.638766289926504E-01   1.655236164952167E-01   1.671871564973697E-01
   1.688674153544952E-01   1.705645610938794E-01   1.722787634315107E-01
   1.740101937890512E-01   1.757590253109795E-01   1.775254328819054E-01
   1.793095931440578E-01   1.811116845149500E-01   1.829318872052204E-01
   1.847703832366550E-01   1.866273564603891E-01   1.885029925752925E-01
   1.903974791465399E-01   1.923110056243670E-01   1.942437633630162E-01
   1.961959456398724E-01   1.981677476747894E-01   2.001593666496143E-01
   2.021710017279041E-01   2.042028540748431E-01   2.062551268773593E-01
   2.083280253644429E-01   2.104217568276704E-01   2.125365306419326E-01
   2.146725582863737E-01   2.168300533655375E-01   2.190092316307302E-01
   2.212103110015943E-01   2.234335115879010E-01   2.256790557115618E-01
   2.279471679288602E-01   2.302380750529081E-01   2.325520061763275E-01
   2.348891926941579E-01   2.372498683269995E-01   2.396342691443827E-01
   2.420426335883762E-01   2.444752024974314E-01   2.469322191304664E-01
   2.494139291911919E-01   2.519205808526827E-01   2.544524247821927E-01
   2.570097141662254E-01   2.595927047358502E-01   2.622016547922765E-01
   2.648368252326842E-01   2.674984795763132E-01   2.701868839908160E-01
   2.729023073188744E-01   2.756450211050845E-01   2.784152996231096E-01
   2.812134199031105E-01   2.840396617594470E-01   2.868943078186600E-01
   2.897776435477342E-01   2.926899572826454E-01   2.956315402571939E-01
   2.986026866321291E-01   3.016036935245634E-01   3.046348610376874E-01
   3.076964922907784E-01   3.107888934495131E-01   3.139123737565844E-01
   3.170672455626258E-01   3.202538243574470E-01   3.234724288015837E-01
   3.267233807581612E-01   3.300070053250849E-01   3.333236308675479E-01
   3.366735890508682E-01   3.400572148736559E-01   3.434748467013130E-01
   3.469268262998700E-01   3.504134988701638E-01   3.539352130823574E-01
   3.574923211108057E-01   3.610851786692763E-01   3.647141450465191E-01
   3.683795831421960E-01   3.720818595031712E-01   3.758213443601659E-01
   3.795984116647821E-01   3.834134391268987E-01   3.872668082524394E-01
   3.911589043815288E-01   3.950901167270232E-01   3.990608384134331E-01
   4.030714665162363E-01   4.071224021015851E-01   4.112140502664137E-01
   4.153468201789493E-01   4.195211251196255E-01   4.237373825224159E-01
   4.279960140165741E-01   4.322974454687984E-01   4.366421070258188E-01
   4.410304331574114E-01   4.454628626998463E-01   4.499398388997715E-01
   4.544618094585386E-01   4.590292265769702E-01   4.636425470005850E-01
   4.683022320652701E-01   4.730087477434148E-01   4.777625646905091E-01