<PP_INFO>
Generated using Fritz-Haber code                                                
Author: unknown    Generation date: as well                                     
Info: automatically converted from FHI format                                   
    1        The Pseudo was generated with a Scalar-Relativistic Calculation
nl pn  l   occ               Rcut            Rcut US             E pseu
6s  0  0  2.00      0.00000000000      0.00000000000      0.00000000000
6p  0  1  5.00      0.00000000000      0.00000000000      0.00000000000
6d  0  2  0.00      0.00000000000      0.00000000000      0.00000000000
</PP_INFO>


<PP_HEADER>
   0                   Version Number
  Rn                   Element
   NC                  Norm - Conserving pseudopotential
    F                  Nonlinear Core Correction
SLA  PW   PBE  PBE     PBE  Exchange-Correlation functional
    8.00000000000      Z valence
    0.00000000000      Total energy
  0.0000000  0.0000000 Suggested cutoff for wfc and rho
    2                  Max angular momentum component
  571                  Number of points in mesh
    3    2             Number of Wavefunctions, Number of Projectors
 Wavefunctions         nl  l   occ
                       6s  0  2.00
                       6p  1  5.00
                       6d  2  0.00
</PP_HEADER>


<PP_MESH>
  <PP_R>
  7.26744186047E-05  7.44694767442E-05  7.63088728198E-05  7.81937019784E-05
  8.01250864173E-05  8.21041760518E-05  8.41321492003E-05  8.62102132855E-05
  8.83396055537E-05  9.05215938108E-05  9.27574771780E-05  9.50485868643E-05
  9.73962869598E-05  9.98019752477E-05  1.02267084036E-04  1.04793081012E-04
  1.07381470113E-04  1.10033792425E-04  1.12751627098E-04  1.15536592287E-04
  1.18390346117E-04  1.21314587666E-04  1.24311057981E-04  1.27381541113E-04
  1.30527865179E-04  1.33751903448E-04  1.37055575464E-04  1.40440848178E-04
  1.43909737128E-04  1.47464307635E-04  1.51106676033E-04  1.54839010931E-04
  1.58663534501E-04  1.62582523803E-04  1.66598312141E-04  1.70713290451E-04
  1.74929908725E-04  1.79250677471E-04  1.83678169204E-04  1.88215019984E-04
  1.92863930977E-04  1.97627670073E-04  2.02509073523E-04  2.07511047639E-04
  2.12636570516E-04  2.17888693808E-04  2.23270544545E-04  2.28785326995E-04
  2.34436324572E-04  2.40226901789E-04  2.46160506263E-04  2.52240670768E-04
  2.58471015336E-04  2.64855249414E-04  2.71397174075E-04  2.78100684275E-04
  2.84969771176E-04  2.92008524524E-04  2.99221135080E-04  3.06611897116E-04
  3.14185210975E-04  3.21945585686E-04  3.29897641653E-04  3.38046113402E-04
  3.46395852403E-04  3.54951829957E-04  3.63719140157E-04  3.72703002919E-04
  3.81908767091E-04  3.91341913638E-04  4.01008058905E-04  4.10912957960E-04
  4.21062508021E-04  4.31462751970E-04  4.42119881943E-04  4.53040243027E-04
  4.64230337030E-04  4.75696826355E-04  4.87446537966E-04  4.99486467453E-04
  5.11823783199E-04  5.24465830645E-04  5.37420136661E-04  5.50694414037E-04
  5.64296566064E-04  5.78234691245E-04  5.92517088119E-04  6.07152260196E-04
  6.22148921023E-04  6.37515999372E-04  6.53262644556E-04  6.69398231877E-04
  6.85932368204E-04  7.02874897699E-04  7.20235907672E-04  7.38025734592E-04
  7.56254970236E-04  7.74934468001E-04  7.94075349360E-04  8.13689010490E-04
  8.33787129049E-04  8.54381671136E-04  8.75484898413E-04  8.97109375404E-04
  9.19267976977E-04  9.41973896008E-04  9.65240651239E-04  9.89082095325E-04
  1.01351242308E-03  1.03854617993E-03  1.06419827057E-03  1.09048396786E-03
  1.11741892186E-03  1.14501916923E-03  1.17330114271E-03  1.20228168094E-03
  1.23197803846E-03  1.26240789601E-03  1.29358937104E-03  1.32554102850E-03
  1.35828189191E-03  1.39183145464E-03  1.42620969157E-03  1.46143707095E-03
  1.49753456660E-03  1.53452367040E-03  1.57242640505E-03  1.61126533726E-03
  1.65106359109E-03  1.69184486179E-03  1.73363342988E-03  1.77645417559E-03
  1.82033259373E-03  1.86529480880E-03  1.91136759057E-03  1.95857837006E-03
  2.00695525580E-03  2.05652705062E-03  2.10732326877E-03  2.15937415351E-03
  2.21271069510E-03  2.26736464927E-03  2.32336855611E-03  2.38075575944E-03
  2.43956042670E-03  2.49981756924E-03  2.56156306320E-03  2.62483367086E-03
  2.68966706253E-03  2.75610183898E-03  2.82417755440E-03  2.89393473999E-03
  2.96541492807E-03  3.03866067679E-03  3.11371559551E-03  3.19062437072E-03
  3.26943279268E-03  3.35018778265E-03  3.43293742089E-03  3.51773097518E-03
  3.60461893027E-03  3.69365301785E-03  3.78488624739E-03  3.87837293770E-03
  3.97416874926E-03  4.07233071737E-03  4.17291728609E-03  4.27598834305E-03
  4.38160525512E-03  4.48983090493E-03  4.60072972828E-03  4.71436775257E-03
  4.83081263605E-03  4.95013370817E-03  5.07240201076E-03  5.19769034042E-03
  5.32607329183E-03  5.45762730214E-03  5.59243069650E-03  5.73056373471E-03
  5.87210865895E-03  6.01714974283E-03  6.16577334148E-03  6.31806794301E-03
  6.47412422120E-03  6.63403508947E-03  6.79789575618E-03  6.96580378136E-03
  7.13785913475E-03  7.31416425538E-03  7.49482411249E-03  7.67994626807E-03
  7.86964094089E-03  8.06402107213E-03  8.26320239261E-03  8.46730349171E-03
  8.67644588796E-03  8.89075410139E-03  9.11035572769E-03  9.33538151417E-03
  9.56596543757E-03  9.80224478387E-03  1.00443602300E-02  1.02924559277E-02
  1.05466795891E-02  1.08071825750E-02  1.10741199846E-02  1.13476507482E-02
  1.16279377217E-02  1.19151477834E-02  1.22094519337E-02  1.25110253964E-02
  1.28200477237E-02  1.31367029025E-02  1.34611794642E-02  1.37936705969E-02
  1.41343742607E-02  1.44834933049E-02  1.48412355896E-02  1.52078141086E-02
  1.55834471171E-02  1.59683582609E-02  1.63627767099E-02  1.67669372947E-02
  1.71810806459E-02  1.76054533378E-02  1.80403080353E-02  1.84859036437E-02
  1.89425054637E-02  1.94103853487E-02  1.98898218668E-02  2.03811004669E-02
  2.08845136484E-02  2.14003611356E-02  2.19289500556E-02  2.24705951220E-02
  2.30256188215E-02  2.35943516064E-02  2.41771320911E-02  2.47743072537E-02
  2.53862326429E-02  2.60132725891E-02  2.66558004221E-02  2.73141986925E-02
  2.79888594002E-02  2.86801842274E-02  2.93885847778E-02  3.01144828218E-02
  3.08583105475E-02  3.16205108181E-02  3.24015374353E-02  3.32018554099E-02
  3.40219412386E-02  3.48622831871E-02  3.57233815819E-02  3.66057491069E-02
  3.75099111099E-02  3.84364059143E-02  3.93857851404E-02  4.03586140333E-02
  4.13554718000E-02  4.23769519534E-02  4.34236626667E-02  4.44962271345E-02
  4.55952839448E-02  4.67214874582E-02  4.78755081984E-02  4.90580332509E-02
  5.02697666722E-02  5.15114299090E-02  5.27837622278E-02  5.40875211548E-02
  5.54234829273E-02  5.67924429556E-02  5.81952162966E-02  5.96326381392E-02
  6.11055643012E-02  6.26148717394E-02  6.41614590714E-02  6.57462471105E-02
  6.73701794141E-02  6.90342228456E-02  7.07393681499E-02  7.24866305432E-02
  7.42770503176E-02  7.61116934605E-02  7.79916522890E-02  7.99180461005E-02
  8.18920218392E-02  8.39147547786E-02  8.59874492216E-02  8.81113392174E-02
  9.02876892961E-02  9.25177952217E-02  9.48029847637E-02  9.71446184873E-02
  9.95440905640E-02  1.02002829601E-01  1.04522299492E-01  1.07104000289E-01
  1.09749469097E-01  1.12460280983E-01  1.15238049924E-01  1.18084429757E-01
  1.21001115172E-01  1.23989842716E-01  1.27052391832E-01  1.30190585910E-01
  1.33406293382E-01  1.36701428828E-01  1.40077954120E-01  1.43537879587E-01
  1.47083265213E-01  1.50716221864E-01  1.54438912544E-01  1.58253553684E-01
  1.62162416460E-01  1.66167828146E-01  1.70272173501E-01  1.74477896187E-01
  1.78787500223E-01  1.83203551478E-01  1.87728679200E-01  1.92365577576E-01
  1.97117007342E-01  2.01985797423E-01  2.06974846620E-01  2.12087125331E-01
  2.17325677327E-01  2.22693621557E-01  2.28194154009E-01  2.33830549613E-01
  2.39606164189E-01  2.45524436444E-01  2.51588890024E-01  2.57803135608E-01
  2.64170873058E-01  2.70695893622E-01  2.77382082194E-01  2.84233419625E-01
  2.91253985089E-01  2.98447958521E-01  3.05819623097E-01  3.13373367787E-01
  3.21113689971E-01  3.29045198114E-01  3.37172614507E-01  3.45500778085E-01
  3.54034647304E-01  3.62779303093E-01  3.71739951879E-01  3.80921928690E-01
  3.90330700329E-01  3.99971868627E-01  4.09851173782E-01  4.19974497775E-01
  4.30347867870E-01  4.40977460206E-01  4.51869603473E-01  4.63030782679E-01
  4.74467643011E-01  4.86186993794E-01  4.98195812540E-01  5.10501249110E-01
  5.23110629963E-01  5.36031462523E-01  5.49271439647E-01  5.62838444207E-01
  5.76740553779E-01  5.90986045457E-01  6.05583400780E-01  6.20541310779E-01
  6.35868681155E-01  6.51574637580E-01  6.67668531128E-01  6.84159943847E-01
  7.01058694460E-01  7.18374844213E-01  7.36118702865E-01  7.54300834826E-01
  7.72932065446E-01  7.92023487462E-01  8.11586467603E-01  8.31632653353E-01
  8.52173979890E-01  8.73222677194E-01  8.94791277320E-01  9.16892621870E-01
  9.39539869630E-01  9.62746504410E-01  9.86526343069E-01  1.01089354374E+00
  1.03586261427E+00  1.06144842085E+00  1.08766619684E+00  1.11453155190E+00
  1.14206048123E+00  1.17026937512E+00  1.19917502869E+00  1.22879465190E+00
  1.25914587980E+00  1.29024678303E+00  1.32211587857E+00  1.35477214077E+00
  1.38823501265E+00  1.42252441746E+00  1.45766077057E+00  1.49366499160E+00
  1.53055851690E+00  1.56836331226E+00  1.60710188608E+00  1.64679730266E+00
  1.68747319604E+00  1.72915378398E+00  1.77186388244E+00  1.81562892034E+00
  1.86047495467E+00  1.90642868605E+00  1.95351747460E+00  2.00176935622E+00
  2.05121305932E+00  2.10187802189E+00  2.15379440903E+00  2.20699313093E+00
  2.26150586126E+00  2.31736505604E+00  2.37460397292E+00  2.43325669105E+00
  2.49335813132E+00  2.55494407716E+00  2.61805119587E+00  2.68271706041E+00
  2.74898017180E+00  2.81687998204E+00  2.88645691760E+00  2.95775240347E+00
  3.03080888783E+00  3.10566986736E+00  3.18237991308E+00  3.26098469694E+00
  3.34153101895E+00  3.42406683512E+00  3.50864128595E+00  3.59530472571E+00
  3.68410875243E+00  3.77510623862E+00  3.86835136271E+00  3.96389964137E+00
  4.06180796251E+00  4.16213461919E+00  4.26493934428E+00  4.37028334609E+00
  4.47822934474E+00  4.58884160955E+00  4.70218599731E+00  4.81832999144E+00
  4.93734274223E+00  5.05929510796E+00  5.18425969713E+00  5.31231091165E+00
  5.44352499116E+00  5.57798005845E+00  5.71575616589E+00  5.85693534319E+00
  6.00160164616E+00  6.14984120682E+00  6.30174228463E+00  6.45739531906E+00
  6.61689298344E+00  6.78033024014E+00  6.94780439707E+00  7.11941516567E+00
  7.29526472027E+00  7.47545775886E+00  7.66010156550E+00  7.84930607417E+00
  8.04318393420E+00  8.24185057738E+00  8.44542428664E+00  8.65402626652E+00
  8.86778071530E+00  9.08681489897E+00  9.31125922697E+00  9.54124732988E+00
  9.77691613893E+00  1.00184059676E+01  1.02658605950E+01  1.05194273517E+01
  1.07792572072E+01  1.10455048603E+01  1.13183288303E+01  1.15978915524E+01
  1.18843594738E+01  1.21779031528E+01  1.24786973606E+01  1.27869211854E+01
  1.31027581387E+01  1.34263962647E+01  1.37580282525E+01  1.40978515503E+01
  1.44460684836E+01  1.48028863752E+01  1.51685176686E+01  1.55431800550E+01
  1.59270966024E+01  1.63204958885E+01  1.67236121369E+01  1.71366853567E+01
  1.75599614850E+01  1.79936925337E+01  1.84381367393E+01  1.88935587167E+01
  1.93602296170E+01  1.98384272886E+01  2.03284364426E+01  2.08305488227E+01
  2.13450633787E+01  2.18722864441E+01  2.24125319193E+01  2.29661214577E+01
  2.35333846577E+01  2.41146592587E+01  2.47102913424E+01  2.53206355386E+01
  2.59460552364E+01  2.65869228007E+01  2.72436197939E+01  2.79165372028E+01
  2.86060756717E+01  2.93126457408E+01  3.00366680906E+01  3.07785737925E+01
  3.15388045651E+01  3.23178130379E+01  3.31160630199E+01  3.39340297765E+01
  3.47722003120E+01  3.56310736597E+01  3.65111611791E+01  3.74129868602E+01
  3.83370876357E+01  3.92840137003E+01  4.02543288387E+01  4.12486107610E+01
  4.22674514468E+01  4.33114574975E+01  4.43812504977E+01  4.54774673850E+01
  4.66007608294E+01  4.77517996219E+01  4.89312690726E+01  5.01398714187E+01
  5.13783262427E+01  5.26473709009E+01  5.39477609621E+01  5.52802706579E+01
  5.66456933432E+01  5.80448419687E+01  5.94785495654E+01  6.09476697396E+01
  6.24530771822E+01  6.39956681886E+01  6.55763611929E+01  6.71960973143E+01
  6.88558409180E+01  7.05565801887E+01  7.22993277193E+01  7.40851211140E+01
  7.59150236055E+01  7.77901246886E+01  7.97115407684E+01
  </PP_R>
  <PP_RAB>
  1.77324758892E-06  1.81704680437E-06  1.86192786043E-06  1.90791747859E-06
  1.95504304031E-06  2.00333260340E-06  2.05281491871E-06  2.10351944720E-06
  2.15547637755E-06  2.20871664407E-06  2.26327194518E-06  2.31917476223E-06
  2.37645837885E-06  2.43515690081E-06  2.49530527626E-06  2.55693931658E-06
  2.62009571770E-06  2.68481208193E-06  2.75112694035E-06  2.81907977578E-06
  2.88871104624E-06  2.96006220908E-06  3.03317574565E-06  3.10809518657E-06
  3.18486513767E-06  3.26353130658E-06  3.34414052985E-06  3.42674080093E-06
  3.51138129872E-06  3.59811241680E-06  3.68698579349E-06  3.77805434259E-06
  3.87137228485E-06  3.96699518029E-06  4.06497996124E-06  4.16538496628E-06
  4.26826997495E-06  4.37369624333E-06  4.48172654054E-06  4.59242518609E-06
  4.70585808819E-06  4.82209278297E-06  4.94119847471E-06  5.06324607703E-06
  5.18830825514E-06  5.31645946904E-06  5.44777601792E-06  5.58233608557E-06
  5.72021978688E-06  5.86150921562E-06  6.00628849324E-06  6.15464381902E-06
  6.30666352135E-06  6.46243811033E-06  6.62206033166E-06  6.78562522185E-06
  6.95323016483E-06  7.12497494990E-06  7.30096183116E-06  7.48129558839E-06
  7.66608358943E-06  7.85543585408E-06  8.04946511968E-06  8.24828690814E-06
  8.45201959477E-06  8.66078447876E-06  8.87470585538E-06  9.09391109001E-06
  9.31853069393E-06  9.54869840207E-06  9.78455125261E-06  1.00262296685E-05
  1.02738775414E-05  1.05276423166E-05  1.07876750819E-05  1.10541306564E-05
  1.13271676836E-05  1.16069487254E-05  1.18936403589E-05  1.21874132758E-05
  1.24884423837E-05  1.27969069105E-05  1.31129905112E-05  1.34368813769E-05
  1.37687723469E-05  1.41088610238E-05  1.44573498911E-05  1.48144464334E-05
  1.51803632603E-05  1.55553182329E-05  1.59395345932E-05  1.63332410977E-05
  1.67366721528E-05  1.71500679550E-05  1.75736746334E-05  1.80077443969E-05
  1.84525356835E-05  1.89083133149E-05  1.93753486538E-05  1.98539197655E-05
  2.03443115837E-05  2.08468160798E-05  2.13617324370E-05  2.18893672282E-05
  2.24300345987E-05  2.29840564533E-05  2.35517626477E-05  2.41334911851E-05
  2.47295884174E-05  2.53404092513E-05  2.59663173598E-05  2.66076853986E-05
  2.72648952279E-05  2.79383381401E-05  2.86284150921E-05  2.93355369449E-05
  3.00601247074E-05  3.08026097877E-05  3.15634342495E-05  3.23430510754E-05
  3.31419244370E-05  3.39605299706E-05  3.47993550609E-05  3.56588991309E-05
  3.65396739394E-05  3.74422038857E-05  3.83670263217E-05  3.93146918718E-05
  4.02857647611E-05  4.12808231507E-05  4.23004594825E-05  4.33452808317E-05
  4.44159092682E-05  4.55129822272E-05  4.66371528882E-05  4.77890905645E-05
  4.89694811015E-05  5.01790272847E-05  5.14184492586E-05  5.26884849553E-05
  5.39898905337E-05  5.53234408299E-05  5.66899298183E-05  5.80901710849E-05
  5.95249983107E-05  6.09952657689E-05  6.25018488334E-05  6.40456444996E-05
  6.56275719187E-05  6.72485729451E-05  6.89096126969E-05  7.06116801305E-05
  7.23557886297E-05  7.41429766089E-05  7.59743081311E-05  7.78508735420E-05
  7.97737901184E-05  8.17442027344E-05  8.37632845419E-05  8.58322376701E-05
  8.79522939405E-05  9.01247156009E-05  9.23507960762E-05  9.46318607393E-05
  9.69692676996E-05  9.93644086117E-05  1.01818709504E-04  1.04333631629E-04
  1.06910672330E-04  1.09551365937E-04  1.12257284676E-04  1.15030039607E-04
  1.17871281585E-04  1.20782702241E-04  1.23766034986E-04  1.26823056050E-04
  1.29955585535E-04  1.33165488497E-04  1.36454676063E-04  1.39825106562E-04
  1.43278786694E-04  1.46817772725E-04  1.50444171712E-04  1.54160142753E-04
  1.57967898279E-04  1.61869705366E-04  1.65867887089E-04  1.69964823900E-04
  1.74162955050E-04  1.78464780040E-04  1.82872860107E-04  1.87389819752E-04
  1.92018348300E-04  1.96761201503E-04  2.01621203180E-04  2.06601246898E-04
  2.11704297697E-04  2.16933393850E-04  2.22291648678E-04  2.27782252400E-04
  2.33408474034E-04  2.39173663343E-04  2.45081252828E-04  2.51134759773E-04
  2.57337788339E-04  2.63694031711E-04  2.70207274294E-04  2.76881393969E-04
  2.83720364400E-04  2.90728257401E-04  2.97909245359E-04  3.05267603719E-04
  3.12807713531E-04  3.20534064055E-04  3.28451255437E-04  3.36564001447E-04
  3.44877132282E-04  3.53395597450E-04  3.62124468707E-04  3.71068943084E-04
  3.80234345978E-04  3.89626134324E-04  3.99249899841E-04  4.09111372368E-04
  4.19216423265E-04  4.29571068920E-04  4.40181474322E-04  4.51053956738E-04
  4.62194989469E-04  4.73611205709E-04  4.85309402490E-04  4.97296544732E-04
  5.09579769386E-04  5.22166389690E-04  5.35063899516E-04  5.48279977834E-04
  5.61822493286E-04  5.75699508870E-04  5.89919286739E-04  6.04490293122E-04
  6.19421203362E-04  6.34720907085E-04  6.50398513490E-04  6.66463356773E-04
  6.82925001685E-04  6.99793249227E-04  7.17078142483E-04  7.34789972602E-04
  7.52939284926E-04  7.71536885263E-04  7.90593846329E-04  8.10121514334E-04
  8.30131515738E-04  8.50635764176E-04  8.71646467552E-04  8.93176135300E-04
  9.15237585842E-04  9.37843954212E-04  9.61008699881E-04  9.84745614768E-04
  1.00906883145E-03  1.03399283159E-03  1.05953245453E-03  1.08570290616E-03
  1.11251976794E-03  1.13999900621E-03  1.16815698166E-03  1.19701045911E-03
  1.22657661745E-03  1.25687305990E-03  1.28791782448E-03  1.31972939474E-03
  1.35232671079E-03  1.38572918055E-03  1.41995669131E-03  1.45502962158E-03
  1.49096885324E-03  1.52779578391E-03  1.56553233978E-03  1.60420098857E-03
  1.64382475299E-03  1.68442722438E-03  1.72603257683E-03  1.76866558147E-03
  1.81235162134E-03  1.85711670638E-03  1.90298748903E-03  1.94999128001E-03
  1.99815606463E-03  2.04751051942E-03  2.09808402925E-03  2.14990670477E-03
  2.20300940038E-03  2.25742373257E-03  2.31318209877E-03  2.37031769661E-03
  2.42886454371E-03  2.48885749794E-03  2.55033227814E-03  2.61332548541E-03
  2.67787462490E-03  2.74401812814E-03  2.81179537590E-03  2.88124672169E-03
  2.95241351571E-03  3.02533812955E-03  3.10006398135E-03  3.17663556169E-03
  3.25509846006E-03  3.33549939203E-03  3.41788622701E-03  3.50230801682E-03
  3.58881502483E-03  3.67745875594E-03  3.76829198722E-03  3.86136879930E-03
  3.95674460864E-03  4.05447620048E-03  4.15462176263E-03  4.25724092017E-03
  4.36239477089E-03  4.47014592174E-03  4.58055852600E-03  4.69369832159E-03
  4.80963267014E-03  4.92843059709E-03  5.05016283284E-03  5.17490185481E-03
  5.30272193062E-03  5.43369916231E-03  5.56791153162E-03  5.70543894645E-03
  5.84636328843E-03  5.99076846165E-03  6.13874044265E-03  6.29036733159E-03
  6.44573940468E-03  6.60494916797E-03  6.76809141242E-03  6.93526327031E-03
  7.10656427309E-03  7.28209641063E-03  7.46196419197E-03  7.64627470751E-03
  7.83513769279E-03  8.02866559380E-03  8.22697363397E-03  8.43017988273E-03
  8.63840532583E-03  8.85177393738E-03  9.07041275363E-03  9.29445194865E-03
  9.52402491178E-03  9.75926832710E-03  1.00003222548E-02  1.02473302145E-02
  1.05004392708E-02  1.07598001208E-02  1.10255671837E-02  1.12978986932E-02
  1.15769567909E-02  1.18629076236E-02  1.21559214419E-02  1.24561727016E-02
  1.27638401673E-02  1.30791070194E-02  1.34021609628E-02  1.37331943386E-02
  1.40724042387E-02  1.44199926234E-02  1.47761664412E-02  1.51411377523E-02
  1.55151238548E-02  1.58983474140E-02  1.62910365952E-02  1.66934251991E-02
  1.71057528015E-02  1.75282648957E-02  1.79612130386E-02  1.84048550006E-02
  1.88594549192E-02  1.93252834557E-02  1.98026179570E-02  2.02917426206E-02
  2.07929486633E-02  2.13065344953E-02  2.18328058973E-02  2.23720762030E-02
  2.29246664852E-02  2.34909057474E-02  2.40711311193E-02  2.46656880580E-02
  2.52749305530E-02  2.58992213377E-02  2.65389321047E-02  2.71944437277E-02
  2.78661464878E-02  2.85544403060E-02  2.92597349816E-02  2.99824504356E-02
  3.07230169614E-02  3.14818754803E-02  3.22594778047E-02  3.30562869065E-02
  3.38727771930E-02  3.47094347897E-02  3.55667578290E-02  3.64452567474E-02
  3.73454545891E-02  3.82678873174E-02  3.92131041342E-02  4.01816678063E-02
  4.11741550011E-02  4.21911566296E-02  4.32332781984E-02  4.43011401699E-02
  4.53953783321E-02  4.65166441769E-02  4.76656052880E-02  4.88429457386E-02
  5.00493664984E-02  5.12855858509E-02  5.25523398214E-02  5.38503826150E-02
  5.51804870656E-02  5.65434450961E-02  5.79400681900E-02  5.93711878743E-02
  6.08376562148E-02  6.23403463233E-02  6.38801528775E-02  6.54579926535E-02
  6.70748050721E-02  6.87315527574E-02  7.04292221105E-02  7.21688238966E-02
  7.39513938468E-02  7.57779932748E-02  7.76497097087E-02  7.95676575385E-02
  8.15329786797E-02  8.35468432531E-02  8.56104502815E-02  8.77250284034E-02
  8.98918366050E-02  9.21121649691E-02  9.43873354439E-02  9.67187026294E-02
  9.91076545843E-02  1.01555613653E-01  1.04064037310E-01  1.06634419031E-01
  1.09268289181E-01  1.11967215924E-01  1.14732806157E-01  1.17566706470E-01
  1.20470604119E-01  1.23446228041E-01  1.26495349874E-01  1.29619785016E-01
  1.32821393705E-01  1.36102082130E-01  1.39463803559E-01  1.42908559507E-01
  1.46438400926E-01  1.50055429429E-01  1.53761798536E-01  1.57559714960E-01
  1.61451439919E-01  1.65439290485E-01  1.69525640960E-01  1.73712924292E-01
  1.78003633522E-01  1.82400323270E-01  1.86905611255E-01  1.91522179853E-01
  1.96252777695E-01  2.01100221304E-01  2.06067396771E-01  2.11157261471E-01
  2.16372845829E-01  2.21717255121E-01  2.27193671323E-01  2.32805355004E-01
  2.38555647273E-01  2.44447971761E-01  2.50485836663E-01  2.56672836829E-01
  2.63012655898E-01  2.69509068499E-01  2.76165942491E-01  2.82987241270E-01
  2.89977026130E-01  2.97139458675E-01  3.04478803305E-01  3.11999429746E-01
  3.19705815661E-01  3.27602549308E-01  3.35694332276E-01  3.43985982283E-01
  3.52482436045E-01  3.61188752216E-01  3.70110114395E-01  3.79251834221E-01
  3.88619354526E-01  3.98218252583E-01  4.08054243422E-01  4.18133183234E-01
  4.28461072860E-01  4.39044061360E-01  4.49888449675E-01  4.61000694382E-01
  4.72387411534E-01  4.84055380598E-01  4.96011548499E-01  5.08263033747E-01
  5.20817130681E-01  5.33681313808E-01  5.46863242260E-01  5.60370764343E-01
  5.74211922223E-01  5.88394956702E-01  6.02928312132E-01  6.17820641442E-01
  6.33080811285E-01  6.48717907324E-01  6.64741239635E-01  6.81160348254E-01
  6.97985008856E-01  7.15225238575E-01  7.32891301967E-01  7.50993717126E-01
  7.69543261939E-01  7.88550980509E-01  8.08028189727E-01  8.27986486014E-01
  8.48437752218E-01  8.69394164698E-01  8.90868200566E-01  9.12872645120E-01
  9.35420599455E-01  9.58525488261E-01  9.82201067821E-01  1.00646143420E+00
  1.03132103162E+00  1.05679466110E+00  1.08289748923E+00  1.10964505722E+00
  1.13705329013E+00  1.16513850639E+00  1.19391742750E+00  1.22340718796E+00
  1.25362534550E+00  1.28458989154E+00  1.31631926186E+00  1.34883234763E+00
  1.38214850661E+00  1.41628757473E+00  1.45126987782E+00  1.48711624381E+00
  1.52384801503E+00  1.56148706100E+00  1.60005579141E+00  1.63957716945E+00
  1.68007472554E+00  1.72157257126E+00  1.76409541377E+00  1.80766857049E+00
  1.85231798418E+00  1.89807023839E+00  1.94495257328E+00
  </PP_RAB>
</PP_MESH>


<PP_LOCAL>
 -5.28695158587E+00 -5.28695207274E+00 -5.28695255134E+00 -5.28695302204E+00
 -5.28695348522E+00 -5.28695394125E+00 -5.28695439050E+00 -5.28695483335E+00
 -5.28695527016E+00 -5.28695570133E+00 -5.28695612723E+00 -5.28695654824E+00
 -5.28695696474E+00 -5.28695737714E+00 -5.28695778583E+00 -5.28695819120E+00
 -5.28695859366E+00 -5.28695899364E+00 -5.28695939154E+00 -5.28695978779E+00
 -5.28696018284E+00 -5.28696057713E+00 -5.28696097111E+00 -5.28696136526E+00
 -5.28696176005E+00 -5.28696215598E+00 -5.28696255354E+00 -5.28696295327E+00
 -5.28696335569E+00 -5.28696376135E+00 -5.28696417084E+00 -5.28696458472E+00
 -5.28696500362E+00 -5.28696542815E+00 -5.28696585898E+00 -5.28696629677E+00
 -5.28696674223E+00 -5.28696719608E+00 -5.28696765908E+00 -5.28696813201E+00
 -5.28696861568E+00 -5.28696911095E+00 -5.28696961869E+00 -5.28697013983E+00
 -5.28697067533E+00 -5.28697122619E+00 -5.28697179345E+00 -5.28697237819E+00
 -5.28697298156E+00 -5.28697360475E+00 -5.28697424899E+00 -5.28697491558E+00
 -5.28697560588E+00 -5.28697632130E+00 -5.28697706333E+00 -5.28697783352E+00
 -5.28697863349E+00 -5.28697946494E+00 -5.28698032966E+00 -5.28698122950E+00
 -5.28698216642E+00 -5.28698314247E+00 -5.28698415978E+00 -5.28698522060E+00
 -5.28698632730E+00 -5.28698748232E+00 -5.28698868826E+00 -5.28698994784E+00
 -5.28699126389E+00 -5.28699263939E+00 -5.28699407748E+00 -5.28699558142E+00
 -5.28699715467E+00 -5.28699880082E+00 -5.28700052367E+00 -5.28700232719E+00
 -5.28700421553E+00 -5.28700619308E+00 -5.28700826442E+00 -5.28701043436E+00
 -5.28701270795E+00 -5.28701509050E+00 -5.28701758757E+00 -5.28702020500E+00
 -5.28702294891E+00 -5.28702582573E+00 -5.28702884222E+00 -5.28703200547E+00
 -5.28703532290E+00 -5.28703880234E+00 -5.28704245196E+00 -5.28704628038E+00
 -5.28705029662E+00 -5.28705451017E+00 -5.28705893098E+00 -5.28706356950E+00
 -5.28706843668E+00 -5.28707354406E+00 -5.28707890371E+00 -5.28708452833E+00
 -5.28709043124E+00 -5.28709662643E+00 -5.28710312858E+00 -5.28710995312E+00
 -5.28711711623E+00 -5.28712463490E+00 -5.28713252699E+00 -5.28714081122E+00
 -5.28714950727E+00 -5.28715863578E+00 -5.28716821844E+00 -5.28717827801E+00
 -5.28718883840E+00 -5.28719992469E+00 -5.28721156325E+00 -5.28722378174E+00
 -5.28723660920E+00 -5.28725007612E+00 -5.28726421454E+00 -5.28727905807E+00
 -5.28729464202E+00 -5.28731100344E+00 -5.28732818125E+00 -5.28734621632E+00
 -5.28736515154E+00 -5.28738503195E+00 -5.28740590486E+00 -5.28742781992E+00
 -5.28745082927E+00 -5.28747498765E+00 -5.28750035255E+00 -5.28752698430E+00
 -5.28755494628E+00 -5.28758430502E+00 -5.28761513038E+00 -5.28764749569E+00
 -5.28768147796E+00 -5.28771715805E+00 -5.28775462085E+00 -5.28779395550E+00
 -5.28783525558E+00 -5.28787861935E+00 -5.28792414998E+00 -5.28797195578E+00
 -5.28802215049E+00 -5.28807485351E+00 -5.28813019020E+00 -5.28818829220E+00
 -5.28824929771E+00 -5.28831335181E+00 -5.28838060686E+00 -5.28845122280E+00
 -5.28852536754E+00 -5.28860321740E+00 -5.28868495747E+00 -5.28877078209E+00
 -5.28886089529E+00 -5.28895551128E+00 -5.28905485494E+00 -5.28915916238E+00
 -5.28926868146E+00 -5.28938367242E+00 -5.28950440846E+00 -5.28963117639E+00
 -5.28976427730E+00 -5.28990402730E+00 -5.29005075824E+00 -5.29020481847E+00
 -5.29036657371E+00 -5.29053640785E+00 -5.29071472391E+00 -5.29090194494E+00
 -5.29109851503E+00 -5.29130490034E+00 -5.29152159021E+00 -5.29174909829E+00
 -5.29198796370E+00 -5.29223875238E+00 -5.29250205832E+00 -5.29277850497E+00
 -5.29306874670E+00 -5.29337347030E+00 -5.29369339659E+00 -5.29402928204E+00
 -5.29438192058E+00 -5.29475214537E+00 -5.29514083076E+00 -5.29554889425E+00
 -5.29597729863E+00 -5.29642705414E+00 -5.29689922081E+00 -5.29739491081E+00
 -5.29791529103E+00 -5.29846158568E+00 -5.29903507902E+00 -5.29963711829E+00
 -5.30026911667E+00 -5.30093255643E+00 -5.30162899223E+00 -5.30236005453E+00
 -5.30312745313E+00 -5.30393298096E+00 -5.30477851789E+00 -5.30566603483E+00
 -5.30659759788E+00 -5.30757537278E+00 -5.30860162941E+00 -5.30967874653E+00
 -5.31080921671E+00 -5.31199565139E+00 -5.31324078618E+00 -5.31454748632E+00
 -5.31591875229E+00 -5.31735772566E+00 -5.31886769506E+00 -5.32045210239E+00
 -5.32211454912E+00 -5.32385880277E+00 -5.32568880360E+00 -5.32760867130E+00
 -5.32962271193E+00 -5.33173542479E+00 -5.33395150953E+00 -5.33627587314E+00
 -5.33871363699E+00 -5.34127014380E+00 -5.34395096453E+00 -5.34676190508E+00
 -5.34970901272E+00 -5.35279858228E+00 -5.35603716184E+00 -5.35943155800E+00
 -5.36298884040E+00 -5.36671634558E+00 -5.37062167985E+00 -5.37471272109E+00
 -5.37899761924E+00 -5.38348479530E+00 -5.38818293858E+00 -5.39310100193E+00
 -5.39824819465E+00 -5.40363397276E+00 -5.40926802623E+00 -5.41516026288E+00
 -5.42132078839E+00 -5.42775988198E+00 -5.43448796734E+00 -5.44151557813E+00
 -5.44885331764E+00 -5.45651181172E+00 -5.46450165469E+00 -5.47283334724E+00
 -5.48151722574E+00 -5.49056338232E+00 -5.49998157482E+00 -5.50978112612E+00
 -5.51997081196E+00 -5.53055873672E+00 -5.54155219660E+00 -5.55295752957E+00
 -5.56477995197E+00 -5.57702338129E+00 -5.58969024530E+00 -5.60278127771E+00
 -5.61629530081E+00 -5.63022899600E+00 -5.64457666345E+00 -5.65932997251E+00
 -5.67447770500E+00 -5.69000549429E+00 -5.70589556313E+00 -5.72212646452E+00
 -5.73867282992E+00 -5.75550513031E+00 -5.77258945586E+00 -5.78988732098E+00
 -5.80735550182E+00 -5.82494591416E+00 -5.84260553970E+00 -5.86027640933E+00
 -5.87789565180E+00 -5.89539561639E+00 -5.91270407742E+00 -5.92974452792E+00
 -5.94643656887E+00 -5.96269639865E+00 -5.97843740599E+00 -5.99357086715E+00
 -6.00800674586E+00 -6.02165459154E+00 -6.03442452815E+00 -6.04622832284E+00
 -6.05698052005E+00 -6.06659962321E+00 -6.07500930319E+00 -6.08213960929E+00
 -6.08792815659E+00 -6.09232126107E+00 -6.09527499340E+00 -6.09675612169E+00
 -6.09674291467E+00 -6.09522577877E+00 -6.09220770541E+00 -6.08770450953E+00
 -6.08174484505E+00 -6.07436998933E+00 -6.06563339540E+00 -6.05560001745E+00
 -6.04434542251E+00 -6.03195470788E+00 -6.01852124999E+00 -6.00414531622E+00
 -5.98893257462E+00 -5.97299254023E+00 -5.95643699719E+00 -5.93937843651E+00
 -5.92192854689E+00 -5.90419679378E+00 -5.88628911681E+00 -5.86830677139E+00
 -5.85034533368E+00 -5.83249388259E+00 -5.81483436592E+00 -5.79744115175E+00
 -5.78038076084E+00 -5.76371177090E+00 -5.74748487948E+00 -5.73174310924E+00
 -5.71652213712E+00 -5.70185072757E+00 -5.68775124981E+00 -5.67424025913E+00
 -5.66132912335E+00 -5.64902467712E+00 -5.63732988833E+00 -5.62624452326E+00
 -5.61576579918E+00 -5.60588901533E+00 -5.59660815557E+00 -5.58791645781E+00