<PP_INFO>
Generated using "atomic" code by A. Dal Corso  (espresso distribution)     
Author: anonymous   Generation date: 26Sep2008                             
Sn                                                                         
    1        The Pseudo was generated with a Scalar-Relativistic Calculation
    0 2.0000000E+00    L component and cutoff radius for Local Potential
nl pn  l   occ               Rcut            Rcut US             E pseu
5P  2  1  2.00      2.10000000000      2.10000000000     -0.27150899139
4D  3  2 10.00      0.90000000000      0.90000000000     -1.89914128072
5S  1  0  2.00      2.00000000000      2.00000000000     -0.77532393418
</PP_INFO>


<PP_HEADER>
   0                   Version Number
  Sn                   Element
   NC                  Norm - Conserving pseudopotential
    F                  Nonlinear Core Correction
 SLA  PW   PBX  PBC    PBE  Exchange-Correlation functional
   14.00000000000      Z valence
 -135.75448806742      Total energy
      0.000      0.000 Suggested cutoff for wfc and rho
    2                  Max angular momentum component
 1243                  Number of points in mesh
    6    2             Number of Wavefunctions, Number of Projectors
 Wavefunctions         nl  l   occ
                       5S  0  2.00
                       6S  0  0.00
                       5P  1  2.00
                       6P  1  0.00
                       4D  2 10.00
                       5D  2  0.00
</PP_HEADER>


<PP_MESH>
  <PP_R>
  1.82376393111E-05  1.84670405734E-05  1.86993273483E-05  1.89345359312E-05
  1.91727030739E-05  1.94138659904E-05  1.96580623630E-05  1.99053303478E-05
  2.01557085810E-05  2.04092361846E-05  2.06659527730E-05  2.09258984584E-05
  2.11891138582E-05  2.14556401000E-05  2.17255188293E-05  2.19987922151E-05
  2.22755029569E-05  2.25556942914E-05  2.28394099990E-05  2.31266944109E-05
  2.34175924158E-05  2.37121494672E-05  2.40104115902E-05  2.43124253889E-05
  2.46182380535E-05  2.49278973678E-05  2.52414517169E-05  2.55589500941E-05
  2.58804421093E-05  2.62059779962E-05  2.65356086205E-05  2.68693854877E-05
  2.72073607510E-05  2.75495872197E-05  2.78961183675E-05  2.82470083406E-05
  2.86023119662E-05  2.89620847612E-05  2.93263829409E-05  2.96952634275E-05
  3.00687838596E-05  3.04470026002E-05  3.08299787470E-05  3.12177721406E-05
  3.16104433747E-05  3.20080538049E-05  3.24106655586E-05  3.28183415447E-05
  3.32311454635E-05  3.36491418163E-05  3.40723959161E-05  3.45009738970E-05
  3.49349427252E-05  3.53743702094E-05  3.58193250108E-05  3.62698766547E-05
  3.67260955406E-05  3.71880529536E-05  3.76558210756E-05  3.81294729962E-05
  3.86090827246E-05  3.90947252006E-05  3.95864763071E-05  4.00844128810E-05
  4.05886127259E-05  4.10991546242E-05  4.16161183490E-05  4.21395846770E-05
  4.26696354008E-05  4.32063533419E-05  4.37498223637E-05  4.43001273842E-05
  4.48573543897E-05  4.54215904481E-05  4.59929237225E-05  4.65714434848E-05
  4.71572401298E-05  4.77504051896E-05  4.83510313473E-05  4.89592124520E-05
  4.95750435333E-05  5.01986208160E-05  5.08300417354E-05  5.14694049522E-05
  5.21168103682E-05  5.27723591418E-05  5.34361537040E-05  5.41082977739E-05
  5.47888963754E-05  5.54780558534E-05  5.61758838905E-05  5.68824895238E-05
  5.75979831618E-05  5.83224766018E-05  5.90560830475E-05  5.97989171263E-05
  6.05510949075E-05  6.13127339205E-05  6.20839531730E-05  6.28648731694E-05
  6.36556159302E-05  6.44563050105E-05  6.52670655195E-05  6.60880241404E-05
  6.69193091494E-05  6.77610504367E-05  6.86133795260E-05  6.94764295954E-05
  7.03503354982E-05  7.12352337842E-05  7.21312627203E-05  7.30385623130E-05
  7.39572743297E-05  7.48875423209E-05  7.58295116430E-05  7.67833294805E-05
  7.77491448695E-05  7.87271087206E-05  7.97173738426E-05  8.07200949664E-05
  8.17354287693E-05  8.27635338992E-05  8.38045709997E-05  8.48587027349E-05
  8.59260938150E-05  8.70069110222E-05  8.81013232362E-05  8.92095014612E-05
  9.03316188523E-05  9.14678507426E-05  9.26183746707E-05  9.37833704082E-05
  9.49630199882E-05  9.61575077333E-05  9.73670202846E-05  9.85917466309E-05
  9.98318781382E-05  1.01087608580E-04  1.02359134165E-04  1.03646653574E-04
  1.04950367984E-04  1.06270481101E-04  1.07607199198E-04  1.08960731139E-04
  1.10331288415E-04  1.11719085180E-04  1.13124338279E-04  1.14547267286E-04
  1.15988094537E-04  1.17447045163E-04  1.18924347129E-04  1.20420231267E-04
  1.21934931310E-04  1.23468683935E-04  1.25021728793E-04  1.26594308550E-04
  1.28186668925E-04  1.29799058728E-04  1.31431729899E-04  1.33084937544E-04
  1.34758939982E-04  1.36453998778E-04  1.38170378789E-04  1.39908348203E-04
  1.41668178581E-04  1.43450144900E-04  1.45254525596E-04  1.47081602608E-04
  1.48931661418E-04  1.50804991105E-04  1.52701884377E-04  1.54622637630E-04
  1.56567550985E-04  1.58536928337E-04  1.60531077408E-04  1.62550309786E-04
  1.64594940980E-04  1.66665290469E-04  1.68761681749E-04  1.70884442385E-04
  1.73033904062E-04  1.75210402640E-04  1.77414278199E-04  1.79645875100E-04
  1.81905542034E-04  1.84193632079E-04  1.86510502755E-04  1.88856516075E-04
  1.91232038611E-04  1.93637441542E-04  1.96073100716E-04  1.98539396712E-04
  2.01036714893E-04  2.03565445469E-04  2.06125983560E-04  2.08718729255E-04
  2.11344087677E-04  2.14002469042E-04  2.16694288729E-04  2.19419967339E-04
  2.22179930765E-04  2.24974610257E-04  2.27804442490E-04  2.30669869631E-04
  2.33571339408E-04  2.36509305182E-04  2.39484226016E-04  2.42496566748E-04
  2.45546798061E-04  2.48635396562E-04  2.51762844849E-04  2.54929631592E-04
  2.58136251610E-04  2.61383205941E-04  2.64671001931E-04  2.68000153303E-04
  2.71371180244E-04  2.74784609484E-04  2.78240974379E-04  2.81740814992E-04
  2.85284678180E-04  2.88873117680E-04  2.92506694192E-04  2.96185975470E-04
  2.99911536410E-04  3.03683959137E-04  3.07503833100E-04  3.11371755164E-04
  3.15288329697E-04  3.19254168674E-04  3.23269891763E-04  3.27336126431E-04
  3.31453508035E-04  3.35622679924E-04  3.39844293539E-04  3.44119008517E-04
  3.48447492790E-04  3.52830422692E-04  3.57268483066E-04  3.61762367368E-04
  3.66312777775E-04  3.70920425299E-04  3.75586029894E-04  3.80310320570E-04
  3.85094035508E-04  3.89937922172E-04  3.94842737430E-04  3.99809247669E-04
  4.04838228916E-04  4.09930466960E-04  4.15086757474E-04  4.20307906138E-04
  4.25594728768E-04  4.30948051439E-04  4.36368710621E-04  4.41857553301E-04
  4.47415437123E-04  4.53043230518E-04  4.58741812839E-04  4.64512074501E-04
  4.70354917120E-04  4.76271253652E-04  4.82262008536E-04  4.88328117841E-04
  4.94470529407E-04  5.00690202999E-04  5.06988110454E-04  5.13365235834E-04
  5.19822575575E-04  5.26361138652E-04  5.32981946727E-04  5.39686034316E-04
  5.46474448946E-04  5.53348251320E-04  5.60308515484E-04  5.67356328994E-04
  5.74492793085E-04  5.81719022843E-04  5.89036147382E-04  5.96445310018E-04
  6.03947668446E-04  6.11544394927E-04  6.19236676464E-04  6.27025714991E-04
  6.34912727561E-04  6.42898946538E-04  6.50985619782E-04  6.59174010854E-04
  6.67465399207E-04  6.75861080385E-04  6.84362366233E-04  6.92970585093E-04
  7.01687082017E-04  7.10513218975E-04  7.19450375069E-04  7.28499946747E-04
  7.37663348025E-04  7.46942010701E-04  7.56337384587E-04  7.65850937727E-04
  7.75484156634E-04  7.85238546519E-04  7.95115631524E-04  8.05116954965E-04
  8.15244079567E-04  8.25498587716E-04  8.35882081698E-04  8.46396183957E-04
  8.57042537341E-04  8.67822805365E-04  8.78738672468E-04  8.89791844277E-04
  9.00984047871E-04  9.12317032056E-04  9.23792567634E-04  9.35412447679E-04
  9.47178487823E-04  9.59092526532E-04  9.71156425400E-04  9.83372069435E-04
  9.95741367357E-04  1.00826625189E-03  1.02094868008E-03  1.03379063358E-03
  1.04679411897E-03  1.05996116807E-03  1.07329383825E-03  1.08679421279E-03
  1.10046440113E-03  1.11430653927E-03  1.12832279008E-03  1.14251534361E-03
  1.15688641750E-03  1.17143825724E-03  1.18617313659E-03  1.20109335791E-03
  1.21620125250E-03  1.23149918102E-03  1.24698953379E-03  1.26267473122E-03
  1.27855722413E-03  1.29463949422E-03  1.31092405436E-03  1.32741344905E-03
  1.34411025479E-03  1.36101708050E-03  1.37813656789E-03  1.39547139193E-03
  1.41302426121E-03  1.43079791840E-03  1.44879514069E-03  1.46701874015E-03
  1.48547156429E-03  1.50415649637E-03  1.52307645597E-03  1.54223439937E-03
  1.56163332002E-03  1.58127624906E-03  1.60116625573E-03  1.62130644789E-03
  1.64169997248E-03  1.66235001603E-03  1.68325980515E-03  1.70443260704E-03
  1.72587172999E-03  1.74758052391E-03  1.76956238084E-03  1.79182073550E-03
  1.81435906579E-03  1.83718089337E-03  1.86028978421E-03  1.88368934912E-03
  1.90738324431E-03  1.93137517202E-03  1.95566888103E-03  1.98026816728E-03
  2.00517687446E-03  2.03039889460E-03  2.05593816871E-03  2.08179868733E-03
  2.10798449124E-03  2.13449967201E-03  2.16134837270E-03  2.18853478846E-03
  2.21606316725E-03  2.24393781041E-03  2.27216307342E-03  2.30074336653E-03
  2.32968315547E-03  2.35898696215E-03  2.38865936533E-03  2.41870500141E-03
  2.44912856506E-03  2.47993481003E-03  2.51112854986E-03  2.54271465864E-03
  2.57469807176E-03  2.60708378668E-03  2.63987686376E-03  2.67308242696E-03
  2.70670566473E-03  2.74075183077E-03  2.77522624486E-03  2.81013429369E-03
  2.84548143173E-03  2.88127318203E-03  2.91751513712E-03  2.95421295990E-03
  2.99137238445E-03  3.02899921703E-03  3.06709933690E-03  3.10567869728E-03
  3.14474332627E-03  3.18429932781E-03  3.22435288260E-03  3.26491024908E-03
  3.30597776443E-03  3.34756184554E-03  3.38966898999E-03  3.43230577712E-03
  3.47547886901E-03  3.51919501154E-03  3.56346103546E-03  3.60828385741E-03
  3.65367048105E-03  3.69962799815E-03  3.74616358964E-03  3.79328452681E-03
  3.84099817242E-03  3.88931198179E-03  3.93823350408E-03  3.98777038337E-03
  4.03793035989E-03  4.08872127125E-03  4.14015105362E-03  4.19222774302E-03
  4.24495947653E-03  4.29835449360E-03  4.35242113730E-03  4.40716785566E-03
  4.46260320297E-03  4.51873584110E-03  4.57557454090E-03  4.63312818354E-03
  4.69140576188E-03  4.75041638191E-03  4.81016926417E-03  4.87067374516E-03
  4.93193927883E-03  4.99397543805E-03  5.05679191609E-03  5.12039852816E-03
  5.18480521292E-03  5.25002203404E-03  5.31605918178E-03  5.38292697458E-03
  5.45063586068E-03  5.51919641972E-03  5.58861936443E-03  5.65891554228E-03
  5.73009593720E-03  5.80217167127E-03  5.87515400647E-03  5.94905434643E-03
  6.02388423824E-03  6.09965537422E-03  6.17637959376E-03  6.25406888518E-03
  6.33273538758E-03  6.41239139277E-03  6.49304934717E-03  6.57472185373E-03
  6.65742167396E-03  6.74116172987E-03  6.82595510602E-03  6.91181505154E-03
  6.99875498222E-03  7.08678848261E-03  7.17592930812E-03  7.26619138718E-03
  7.35758882343E-03  7.45013589790E-03  7.54384707126E-03  7.63873698608E-03
  7.73482046909E-03  7.83211253354E-03  7.93062838150E-03  8.03038340628E-03
  8.13139319481E-03  8.23367353007E-03  8.33724039357E-03  8.44210996784E-03
  8.54829863897E-03  8.65582299916E-03  8.76469984930E-03  8.87494620162E-03
  8.98657928234E-03  9.09961653436E-03  9.21407561998E-03  9.32997442366E-03
  9.44733105482E-03  9.56616385068E-03  9.68649137911E-03  9.80833244152E-03
  9.93170607583E-03  1.00566315594E-02  1.01831284122E-02  1.03112163994E-02
  1.04409155352E-02  1.05722460853E-02  1.07052285704E-02  1.08398837692E-02
  1.09762327219E-02  1.11142967333E-02  1.12540973761E-02  1.13956564946E-02
  1.15389962076E-02  1.16841389122E-02  1.18311072873E-02  1.19799242970E-02
  1.21306131943E-02  1.22831975245E-02  1.24377011293E-02  1.25941481502E-02
  1.27525630324E-02  1.29129705286E-02  1.30753957026E-02  1.32398639338E-02
  1.34064009207E-02  1.35750326850E-02  1.37457855758E-02  1.39186862736E-02
  1.40937617944E-02  1.42710394941E-02  1.44505470728E-02  1.46323125789E-02
  1.48163644136E-02  1.50027313354E-02  1.51914424645E-02  1.53825272874E-02
  1.55760156614E-02  1.57719378196E-02  1.59703243752E-02  1.61712063264E-02
  1.63746150616E-02  1.65805823636E-02  1.67891404154E-02  1.70003218045E-02
  1.72141595285E-02  1.74306869999E-02  1.76499380517E-02  1.78719469422E-02
  1.80967483607E-02  1.83243774330E-02  1.85548697266E-02  1.87882612563E-02
  1.90245884900E-02  1.92638883544E-02  1.95061982406E-02  1.97515560099E-02
  2.00000000000E-02  2.02515690308E-02  2.05063024105E-02  2.07642399416E-02
  2.10254219275E-02  2.12898891784E-02  2.15576830177E-02  2.18288452889E-02
  2.21034183615E-02  2.23814451383E-02  2.26629690613E-02  2.29480341194E-02
  2.32366848546E-02  2.35289663690E-02  2.38249243322E-02  2.41246049884E-02
  2.44280551632E-02  2.47353222713E-02  2.50464543238E-02  2.53614999358E-02
  2.56805083338E-02  2.60035293634E-02  2.63306134974E-02  2.66618118433E-02
  2.69971761515E-02  2.73367588235E-02  2.76806129196E-02  2.80287921678E-02
  2.83813509719E-02  2.87383444197E-02  2.90998282924E-02  2.94658590724E-02
  2.98364939528E-02  3.02117908462E-02  3.05918083933E-02  3.09766059727E-02
  3.13662437098E-02  3.17607824863E-02  3.21602839497E-02  3.25648105229E-02
  3.29744254140E-02  3.33891926262E-02  3.38091769676E-02  3.42344440617E-02
  3.46650603573E-02  3.51010931392E-02  3.55426105383E-02  3.59896815426E-02
  3.64423760078E-02  3.69007646685E-02  3.73649191486E-02  3.78349119735E-02
  3.83108165803E-02  3.87927073301E-02  3.92806595194E-02  3.97747493916E-02
  4.02750541494E-02  4.07816519663E-02  4.12946219993E-02  4.18140444010E-02
  4.23400003323E-02  4.28725719747E-02  4.34118425437E-02  4.39578963014E-02
  4.45108185698E-02  4.50706957443E-02  4.56376153066E-02  4.62116658392E-02
  4.67929370385E-02  4.73815197295E-02  4.79775058793E-02  4.85809886121E-02
  4.91920622231E-02  4.98108221940E-02  5.04373652072E-02  5.10717891613E-02
  5.17141931863E-02  5.23646776593E-02  5.30233442197E-02  5.36902957854E-02
  5.43656365692E-02  5.50494720942E-02  5.57419092113E-02  5.64430561151E-02
  5.71530223613E-02  5.78719188834E-02  5.85998580107E-02  5.93369534849E-02
  6.00833204789E-02  6.08390756140E-02  6.16043369784E-02  6.23792241457E-02
  6.31638581938E-02  6.39583617232E-02  6.47628588768E-02  6.55774753588E-02
  6.64023384547E-02  6.72375770512E-02  6.80833216558E-02  6.89397044180E-02
  6.98068591492E-02  7.06849213442E-02  7.15740282020E-02  7.24743186473E-02
  7.33859333524E-02  7.43090147588E-02  7.52437071000E-02  7.61901564235E-02
  7.71485106139E-02  7.81189194161E-02  7.91015344584E-02  8.00965092764E-02
  8.11039993369E-02  8.21241620623E-02  8.31571568551E-02  8.42031451229E-02
  8.52622903034E-02  8.63347578902E-02  8.74207154586E-02  8.85203326916E-02
  8.96337814068E-02  9.07612355826E-02  9.19028713861E-02  9.30588672003E-02
  9.42294036518E-02  9.54146636394E-02  9.66148323622E-02  9.78300973492E-02
  9.90606484879E-02  1.00306678054E-01  1.01568380744E-01  1.02845953699E-01
  1.04139596544E-01  1.05449511412E-01  1.06775902981E-01  1.08118978503E-01
  1.09478947835E-01  1.10856023475E-01  1.12250420594E-01  1.13662357070E-01
  1.15092053520E-01  1.16539733338E-01  1.18005622726E-01  1.19489950733E-01
  1.20992949288E-01  1.22514853238E-01  1.24055900382E-01  1.25616331513E-01
  1.27196390452E-01  1.28796324085E-01  1.30416382407E-01  1.32056818553E-01
  1.33717888846E-01  1.35399852831E-01  1.37102973318E-01  1.38827516424E-01
  1.40573751612E-01  1.42341951734E-01  1.44132393076E-01  1.45945355398E-01
  1.47781121979E-01  1.49639979660E-01  1.51522218893E-01  1.53428133780E-01
  1.55358022126E-01  1.57312185479E-01  1.59290929181E-01  1.61294562414E-01
  1.63323398251E-01  1.65377753702E-01  1.67457949763E-01  1.69564311469E-01
  1.71697167944E-01  1.73856852450E-01  1.76043702444E-01  1.78258059624E-01
  1.80500269989E-01  1.82770683888E-01  1.85069656078E-01  1.87397545779E-01
  1.89754716727E-01  1.92141537236E-01  1.94558380251E-01  1.97005623409E-01
  1.99483649096E-01  2.01992844510E-01  2.04533601716E-01  2.07106317713E-01
  2.09711394495E-01  2.12349239108E-01  2.15020263722E-01  2.17724885689E-01
  2.20463527613E-01  2.23236617411E-01  2.26044588386E-01  2.28887879287E-01
  2.31766934384E-01  2.34682203537E-01  2.37634142262E-01  2.40623211805E-01
  2.43649879214E-01  2.46714617413E-01  2.49817905272E-01  2.52960227688E-01
  2.56142075653E-01  2.59363946339E-01  2.62626343170E-01  2.65929775901E-01
  2.69274760700E-01  2.72661820229E-01  2.76091483721E-01  2.79564287070E-01
  2.83080772908E-01  2.86641490692E-01  2.90246996792E-01  2.93897854576E-01
  2.97594634497E-01  3.01337914186E-01  3.05128278537E-01  3.08966319802E-01
  3.12852637684E-01  3.16787839426E-01  3.20772539913E-01  3.24807361762E-01
  3.28892935422E-01  3.33029899272E-01  3.37218899722E-01  3.41460591311E-01
  3.45755636811E-01  3.50104707334E-01  3.54508482429E-01  3.58967650196E-01
  3.63482907389E-01  3.68054959525E-01  3.72684520998E-01  3.77372315185E-01
  3.82119074565E-01  3.86925540827E-01  3.91792464992E-01  3.96720607527E-01
  4.01710738464E-01  4.06763637521E-01  4.11880094224E-01  4.17060908030E-01
  4.22306888451E-01  4.27618855182E-01  4.32997638230E-01  4.38444078040E-01
  4.43959025629E-01  4.49543342719E-01  4.55197901871E-01  4.60923586621E-01
  4.66721291619E-01  4.72591922768E-01  4.78536397368E-01  4.84555644252E-01
  4.90650603942E-01  4.96822228787E-01  5.03071483116E-01  5.09399343388E-01
  5.15806798344E-01  5.22294849161E-01  5.28864509611E-01  5.35516806217E-01
  5.42252778413E-01  5.49073478709E-01  5.55979972853E-01  5.62973339999E-01
  5.70054672875E-01  5.77225077954E-01  5.84485675625E-01  5.91837600372E-01
  5.99282000948E-01  6.06820040556E-01  6.14452897030E-01  6.22181763019E-01
  6.30007846175E-01  6.37932369338E-01  6.45956570732E-01  6.54081704155E-01
  6.62309039174E-01  6.70639861328E-01  6.79075472325E-01  6.87617190246E-01
  6.96266349752E-01  7.05024302292E-01  7.13892416313E-01  7.22872077477E-01
  7.31964688874E-01  7.41171671242E-01  7.50494463192E-01  7.59934521429E-01
  7.69493320981E-01  7.79172355429E-01  7.88973137144E-01  7.98897197516E-01
  8.08946087201E-01  8.19121376358E-01  8.29424654897E-01  8.39857532725E-01
  8.50421640001E-01  8.61118627389E-01  8.71950166314E-01  8.82917949227E-01
  8.94023689866E-01  9.05269123525E-01  9.16656007327E-01  9.28186120494E-01
  9.39861264632E-01  9.51683264004E-01  9.63653965822E-01  9.75775240533E-01
  9.88048982111E-01  1.00047710835E+00  1.01306156118E+00  1.02580430693E+00
  1.03870733670E+00  1.05177266660E+00  1.06500233811E+00  1.07839841842E+00
  1.09196300066E+00  1.10569820435E+00  1.11960617563E+00  1.13368908766E+00
  1.14794914091E+00  1.16238856355E+00  1.17700961177E+00  1.19181457013E+00
  1.20680575195E+00  1.22198549962E+00  1.23735618501E+00  1.25292020982E+00
  1.26868000596E+00  1.28463803594E+00  1.30079679322E+00  1.31715880265E+00
  1.33372662082E+00  1.35050283649E+00  1.36749007097E+00  1.38469097856E+00
  1.40210824693E+00  1.41974459757E+00  1.43760278619E+00  1.45568560317E+00
  1.47399587399E+00  1.49253645966E+00  1.51131025719E+00  1.53032020003E+00
  1.54956925851E+00  1.56906044033E+00  1.58879679105E+00  1.60878139449E+00
  1.62901737330E+00  1.64950788939E+00  1.67025614444E+00  1.69126538041E+00
  1.71253888004E+00  1.73407996736E+00  1.75589200820E+00  1.77797841073E+00
  1.80034262601E+00  1.82298814849E+00  1.84591851657E+00  1.86913731318E+00
  1.89264816630E+00  1.91645474954E+00  1.94056078274E+00  1.96497003251E+00
  1.98968631284E+00  2.01471348571E+00  2.04005546165E+00  2.06571620042E+00
  2.09169971154E+00  2.11801005500E+00  2.14465134184E+00  2.17162773482E+00
  2.19894344904E+00  2.22660275266E+00  2.25460996748E+00  2.28296946970E+00
  2.31168569054E+00  2.34076311698E+00  2.37020629241E+00  2.40001981740E+00
  2.43020835037E+00  2.46077660834E+00  2.49172936766E+00  2.52307146477E+00
  2.55480779692E+00  2.58694332299E+00  2.61948306422E+00  2.65243210500E+00
  2.68579559370E+00  2.71957874342E+00  2.75378683286E+00  2.78842520709E+00
  2.82349927843E+00  2.85901452728E+00  2.89497650296E+00  2.93139082462E+00
  2.96826318205E+00  3.00559933665E+00  3.04340512225E+00  3.08168644610E+00
  3.12044928973E+00  3.15969970990E+00  3.19944383959E+00  3.23968788888E+00
  3.28043814600E+00  3.32170097825E+00  3.36348283304E+00  3.40579023886E+00
  3.44862980634E+00  3.49200822924E+00  3.53593228553E+00  3.58040883843E+00
  3.62544483750E+00  3.67104731970E+00  3.71722341052E+00  3.76398032505E+00
  3.81132536917E+00  3.85926594063E+00  3.90780953025E+00  3.95696372306E+00
  4.00673619950E+00  4.05713473662E+00  4.10816720930E+00  4.15984159146E+00
  4.21216595733E+00  4.26514848271E+00  4.31879744621E+00  4.37312123060E+00
  4.42812832408E+00  4.48382732162E+00  4.54022692631E+00  4.59733595068E+00
  4.65516331815E+00  4.71371806436E+00  4.77300933861E+00  4.83304640528E+00
  4.89383864528E+00  4.95539555753E+00  5.01772676042E+00  5.08084199332E+00
  5.14475111812E+00  5.20946412074E+00  5.27499111274E+00  5.34134233283E+00
  5.40852814852E+00  5.47655905775E+00  5.54544569046E+00  5.61519881035E+00
  5.68582931648E+00  5.75734824500E+00  5.82976677091E+00  5.90309620973E+00
  5.97734801934E+00  6.05253380174E+00  6.12866530487E+00  6.20575442441E+00
  6.28381320571E+00  6.36285384561E+00  6.44288869437E+00  6.52393025759E+00
  6.60599119819E+00  6.68908433836E+00  6.77322266156E+00  6.85841931458E+00
  6.94468760957E+00  7.03204102614E+00  7.12049321342E+00  7.21005799225E+00
  7.30074935731E+00  7.39258147931E+00  7.48556870721E+00  7.57972557044E+00
  7.67506678122E+00  7.77160723680E+00  7.86936202182E+00  7.96834641067E+00
  8.06857586985E+00  8.17006606044E+00  8.27283284046E+00  8.37689226745E+00
  8.48226060090E+00  8.58895430482E+00  8.69699005033E+00  8.80638471822E+00
  8.91715540165E+00  9.02931940875E+00  9.14289426538E+00  9.25789771784E+00
  9.37434773565E+00  9.49226251437E+00  9.61166047841E+00  9.73256028397E+00
  9.85498082187E+00  9.97894122057E+00  1.01044608491E+01  1.02315593203E+01
  1.03602564934E+01  1.04905724776E+01  1.06225276352E+01  1.07561425843E+01
  1.08914382025E+01  1.10284356302E+01  1.11671562733E+01  1.13076218073E+01
  1.14498541803E+01  1.15938756162E+01  1.17397086188E+01  1.18873759748E+01
  1.20369007574E+01  1.21883063303E+01  1.23416163509E+01  1.24968547741E+01
  1.26540458562E+01  1.28132141588E+01  1.29743845522E+01  1.31375822196E+01
  1.33028326609E+01  1.34701616969E+01  1.36395954730E+01  1.38111604637E+01
  1.39848834763E+01  1.41607916554E+01  1.43389124870E+01  1.45192738029E+01
  1.47019037848E+01  1.48868309692E+01  1.50740842511E+01  1.52636928894E+01
  1.54556865107E+01  1.56500951145E+01  1.58469490775E+01  1.60462791585E+01
  1.62481165034E+01  1.64524926494E+01  1.66594395309E+01  1.68689894838E+01
  1.70811752505E+01  1.72960299857E+01  1.75135872607E+01  1.77338810694E+01
  1.79569458330E+01  1.81828164060E+01  1.84115280810E+01  1.86431165948E+01
  1.88776181334E+01  1.91150693383E+01  1.93555073117E+01  1.95989696225E+01
  1.98454943121E+01  2.00951199006E+01  2.03478853925E+01  2.06038302828E+01
  2.08629945636E+01  2.11254187297E+01  2.13911437855E+01  2.16602112510E+01
  2.19326631686E+01  2.22085421094E+01  2.24878911801E+01  2.27707540296E+01
  2.30571748557E+01  2.33471984123E+01  2.36408700161E+01  2.39382355540E+01
  2.42393414899E+01  2.45442348722E+01  2.48529633411E+01  2.51655751361E+01
  2.54821191035E+01  2.58026447038E+01  2.61272020198E+01  2.64558417643E+01
  2.67886152879E+01  2.71255745871E+01  2.74667723126E+01  2.78122617771E+01
  2.81620969641E+01  2.85163325360E+01  2.88750238430E+01  2.92382269311E+01
  2.96059985517E+01  2.99783961698E+01  3.03554779733E+01  3.07373028820E+01
  3.11239305567E+01  3.15154214090E+01  3.19118366100E+01  3.23132381004E+01
  3.27196885999E+01  3.31312516174E+01  3.35479914603E+01  3.39699732452E+01
  3.43972629075E+01  3.48299272121E+01  3.52680337637E+01  3.57116510174E+01
  3.61608482891E+01  3.66156957670E+01  3.70762645218E+01  3.75426265184E+01
  3.80148546268E+01  3.84930226335E+01  3.89772052534E+01  3.94674781409E+01
  3.99639179021E+01  4.04666021068E+01  4.09756093004E+01  4.14910190163E+01
  4.20129117884E+01  4.25413691634E+01  4.30764737139E+01  4.36183090511E+01
  4.41669598377E+01  4.47225118018E+01  4.52850517492E+01  4.58546675782E+01
  4.64314482922E+01  4.70154840145E+01  4.76068660019E+01  4.82056866589E+01
  4.88120395525E+01  4.94260194266E+01  5.00477222168E+01  5.06772450654E+01
  5.13146863367E+01  5.19601456321E+01  5.26137238060E+01  5.32755229812E+01
  5.39456465654E+01  5.46241992665E+01  5.53112871099E+01  5.60070174545E+01
  5.67114990095E+01  5.74248418516E+01  5.81471574420E+01  5.88785586441E+01
  5.96191597408E+01  6.03690764525E+01  6.11284259552E+01  6.18973268989E+01
  6.26758994258E+01  6.34642651895E+01  6.42625473737E+01  6.50708707117E+01
  6.58893615057E+01  6.67181476464E+01  6.75573586335E+01  6.84071255953E+01
  6.92675813096E+01  7.01388602244E+01  7.10210984789E+01  7.19144339245E+01
  7.28190061466E+01  7.37349564867E+01  7.46624280637E+01  7.56015657970E+01
  7.65525164288E+01  7.75154285470E+01  7.84904526086E+01  7.94777409632E+01
  8.04774478764E+01  8.14897295547E+01  8.25147441689E+01  8.35526518799E+01
  8.46036148626E+01  8.56677973323E+01  8.67453655697E+01  8.78364879469E+01
  8.89413349540E+01  9.00600792257E+01  9.11928955680E+01  9.23399609857E+01
  9.35014547102E+01  9.46775582273E+01  9.58684553054E+01  9.70743320248E+01
  9.82953768060E+01  9.95317804398E+01  1.00783736117E+02
  </PP_R>
  <PP_RAB>
  2.27970491389E-07  2.30838007167E-07  2.33741591854E-07  2.36681699140E-07
  2.39658788424E-07  2.42673324880E-07  2.45725779537E-07  2.48816629347E-07
  2.51946357262E-07  2.55115452308E-07  2.58324409662E-07  2.61573730731E-07
  2.64863923227E-07  2.68195501250E-07  2.71568985366E-07  2.74984902688E-07
  2.78443786961E-07  2.81946178642E-07  2.85492624987E-07  2.89083680136E-07
  2.92719905198E-07  2.96401868340E-07  3.00130144878E-07  3.03905317361E-07
  3.07727975668E-07  3.11598717098E-07  3.15518146461E-07  3.19486876177E-07
  3.23505526366E-07  3.27574724953E-07  3.31695107757E-07  3.35867318596E-07
  3.40092009387E-07  3.44369840246E-07  3.48701479594E-07  3.53087604257E-07
  3.57528899577E-07  3.62026059515E-07  3.66579786761E-07  3.71190792844E-07
  3.75859798244E-07  3.80587532503E-07  3.85374734337E-07  3.90222151758E-07
  3.95130542184E-07  4.00100672561E-07  4.05133319482E-07  4.10229269309E-07
  4.15389318293E-07  4.20614272704E-07  4.25904948951E-07  4.31262173712E-07
  4.36686784065E-07  4.42179627617E-07  4.47741562635E-07  4.53373458184E-07
  4.59076194257E-07  4.64850661920E-07  4.70697763445E-07  4.76618412453E-07
  4.82613534057E-07  4.88684065008E-07  4.94830953838E-07  5.01055161012E-07
  5.07357659074E-07  5.13739432802E-07  5.20201479362E-07  5.26744808462E-07
  5.33370442509E-07  5.40079416774E-07  5.46872779546E-07  5.53751592302E-07
  5.60716929871E-07  5.67769880602E-07  5.74911546531E-07  5.82143043559E-07
  5.89465501623E-07  5.96880064870E-07  6.04387891841E-07  6.11990155650E-07
  6.19688044167E-07  6.27482760200E-07  6.35375521692E-07  6.43367561902E-07
  6.51460129602E-07  6.59654489273E-07  6.67951921300E-07  6.76353722173E-07
  6.84861204692E-07  6.93475698167E-07  7.02198548631E-07  7.11031119047E-07
  7.19974789522E-07  7.29030957523E-07  7.38201038093E-07  7.47486464078E-07
  7.56888686344E-07  7.66409174007E-07  7.76049414662E-07  7.85810914618E-07
  7.95695199127E-07  8.05703812631E-07  8.15838318994E-07  8.26100301754E-07
  8.36491364368E-07  8.47013130459E-07  8.57667244074E-07  8.68455369942E-07
  8.79379193728E-07  8.90440422302E-07  9.01640784004E-07  9.12982028913E-07
  9.24465929121E-07  9.36094279011E-07  9.47868895537E-07  9.59791618507E-07
  9.71864310869E-07  9.84088859007E-07  9.96467173032E-07  1.00900118708E-06
  1.02169285962E-06  1.03454417374E-06  1.04755713750E-06  1.06073378419E-06
  1.07407617269E-06  1.08758638778E-06  1.10126654045E-06  1.11511876826E-06
  1.12914523565E-06  1.14334813428E-06  1.15772968338E-06  1.17229213010E-06
  1.18703774985E-06  1.20196884667E-06  1.21708775356E-06  1.23239683289E-06
  1.24789847673E-06  1.26359510724E-06  1.27948917707E-06  1.29558316968E-06
  1.31187959980E-06  1.32838101377E-06  1.34508998998E-06  1.36200913923E-06
  1.37914110519E-06  1.39648856475E-06  1.41405422849E-06  1.43184084108E-06
  1.44985118171E-06  1.46808806454E-06  1.48655433912E-06  1.50525289084E-06
  1.52418664138E-06  1.54335854919E-06  1.56277160991E-06  1.58242885687E-06
  1.60233336156E-06  1.62248823410E-06  1.64289662373E-06  1.66356171930E-06
  1.68448674977E-06  1.70567498472E-06  1.72712973486E-06  1.74885435254E-06
  1.77085223226E-06  1.79312681125E-06  1.81568156995E-06  1.83852003259E-06
  1.86164576773E-06  1.88506238881E-06  1.90877355471E-06  1.93278297038E-06
  1.95709438731E-06  1.98171160422E-06  2.00663846760E-06  2.03187887232E-06
  2.05743676226E-06  2.08331613087E-06  2.10952102186E-06  2.13605552981E-06
  2.16292380078E-06  2.19013003299E-06  2.21767847748E-06  2.24557343874E-06
  2.27381927542E-06  2.30242040099E-06  2.33138128443E-06  2.36070645094E-06
  2.39040048264E-06  2.42046801927E-06  2.45091375896E-06  2.48174245890E-06
  2.51295893616E-06  2.54456806836E-06  2.57657479450E-06  2.60898411569E-06
  2.64180109596E-06  2.67503086303E-06  2.70867860911E-06  2.74274959173E-06
  2.77724913456E-06  2.81218262822E-06  2.84755553113E-06  2.88337337039E-06
  2.91964174260E-06  2.95636631477E-06  2.99355282520E-06  3.03120708435E-06
  3.06933497577E-06  3.10794245702E-06  3.14703556061E-06  3.18662039490E-06
  3.22670314512E-06  3.26729007427E-06  3.30838752414E-06  3.35000191629E-06
  3.39213975305E-06  3.43480761855E-06  3.47801217973E-06  3.52176018739E-06
  3.56605847725E-06  3.61091397100E-06  3.65633367740E-06  3.70232469338E-06
  3.74889420512E-06  3.79604948921E-06  3.84379791376E-06  3.89214693955E-06
  3.94110412121E-06  3.99067710842E-06  4.04087364704E-06  4.09170158039E-06