<PP_INFO>
Generated using Fritz-Haber code                                                
Author: unknown    Generation date: as well                                     
Info: automatically converted from FHI format                                   
    1        The Pseudo was generated with a Scalar-Relativistic Calculation
nl pn  l   occ               Rcut            Rcut US             E pseu
5s  0  0  2.00      0.00000000000      0.00000000000      0.00000000000
5p  0  1  5.00      0.00000000000      0.00000000000      0.00000000000
5d  0  2  0.00      0.00000000000      0.00000000000      0.00000000000
</PP_INFO>


<PP_HEADER>
   0                   Version Number
  Xe                   Element
   NC                  Norm - Conserving pseudopotential
    F                  Nonlinear Core Correction
SLA  PW   PBE  PBE     PBE  Exchange-Correlation functional
    8.00000000000      Z valence
    0.00000000000      Total energy
  0.0000000  0.0000000 Suggested cutoff for wfc and rho
    2                  Max angular momentum component
  551                  Number of points in mesh
    3    2             Number of Wavefunctions, Number of Projectors
 Wavefunctions         nl  l   occ
                       5s  0  2.00
                       5p  1  5.00
                       5d  2  0.00
</PP_HEADER>


<PP_MESH>
  <PP_R>
  1.15740740741E-04  1.18599537037E-04  1.21528945602E-04  1.24530710558E-04
  1.27606619109E-04  1.30758502601E-04  1.33988237615E-04  1.37297747084E-04
  1.40689001437E-04  1.44164019773E-04  1.47724871061E-04  1.51373675376E-04
  1.55112605158E-04  1.58943886506E-04  1.62869800502E-04  1.66892684575E-04
  1.71014933884E-04  1.75239002751E-04  1.79567406119E-04  1.84002721050E-04
  1.88547588260E-04  1.93204713690E-04  1.97976870118E-04  2.02866898810E-04
  2.07877711210E-04  2.13012290677E-04  2.18273694257E-04  2.23665054505E-04
  2.29189581351E-04  2.34850564011E-04  2.40651372942E-04  2.46595461853E-04
  2.52686369761E-04  2.58927723094E-04  2.65323237855E-04  2.71876721830E-04
  2.78592076859E-04  2.85473301157E-04  2.92524491696E-04  2.99749846641E-04
  3.07153667853E-04  3.14740363449E-04  3.22514450426E-04  3.30480557352E-04
  3.38643427118E-04  3.47007919768E-04  3.55579015386E-04  3.64361817066E-04
  3.73361553948E-04  3.82583584330E-04  3.92033398863E-04  4.01716623815E-04
  4.11639024423E-04  4.21806508327E-04  4.32225129082E-04  4.42901089771E-04
  4.53840746688E-04  4.65050613131E-04  4.76537363276E-04  4.88307836149E-04
  5.00369039701E-04  5.12728154982E-04  5.25392540410E-04  5.38369736158E-04
  5.51667468641E-04  5.65293655117E-04  5.79256408398E-04  5.93564041686E-04
  6.08225073515E-04  6.23248232831E-04  6.38642464182E-04  6.54416933047E-04
  6.70581031293E-04  6.87144382766E-04  7.04116849021E-04  7.21508535192E-04
  7.39329796011E-04  7.57591241972E-04  7.76303745649E-04  7.95478448167E-04
  8.15126765836E-04  8.35260396952E-04  8.55891328757E-04  8.77031844577E-04
  8.98694531138E-04  9.20892286058E-04  9.43638325523E-04  9.66946192164E-04
  9.90829763110E-04  1.01530325826E-03  1.04038124874E-03  1.06607866558E-03
  1.09241080862E-03  1.11939335559E-03  1.14704237148E-03  1.17537431805E-03
  1.20440606371E-03  1.23415489348E-03  1.26463851935E-03  1.29587509078E-03
  1.32788320552E-03  1.36068192070E-03  1.39429076414E-03  1.42872974601E-03
  1.46401937074E-03  1.50018064920E-03  1.53723511123E-03  1.57520481848E-03
  1.61411237750E-03  1.65398095322E-03  1.69483428277E-03  1.73669668955E-03
  1.77959309778E-03  1.82354904730E-03  1.86859070877E-03  1.91474489927E-03
  1.96203909828E-03  2.01050146401E-03  2.06016085017E-03  2.11104682317E-03
  2.16318967970E-03  2.21662046479E-03  2.27137099027E-03  2.32747385373E-03
  2.38496245792E-03  2.44387103063E-03  2.50423464509E-03  2.56608924082E-03
  2.62947164507E-03  2.69441959470E-03  2.76097175869E-03  2.82916776113E-03
  2.89904820483E-03  2.97065469549E-03  3.04402986647E-03  3.11921740417E-03
  3.19626207405E-03  3.27520974728E-03  3.35610742804E-03  3.43900328151E-03
  3.52394666257E-03  3.61098814513E-03  3.70017955232E-03  3.79157398726E-03
  3.88522586474E-03  3.98119094360E-03  4.07952635991E-03  4.18029066100E-03
  4.28354384033E-03  4.38934737318E-03  4.49776425330E-03  4.60885903036E-03
  4.72269784841E-03  4.83934848526E-03  4.95888039285E-03  5.08136473855E-03
  5.20687444759E-03  5.33548424645E-03  5.46727070734E-03  5.60231229381E-03
  5.74068940747E-03  5.88248443583E-03  6.02778180140E-03  6.17666801189E-03
  6.32923171178E-03  6.48556373506E-03  6.64575715932E-03  6.80990736116E-03
  6.97811207298E-03  7.15047144118E-03  7.32708808578E-03  7.50806716149E-03
  7.69351642038E-03  7.88354627597E-03  8.07826986898E-03  8.27780313475E-03
  8.48226487218E-03  8.69177681452E-03  8.90646370184E-03  9.12645335527E-03
  9.35187675315E-03  9.58286810895E-03  9.81956495124E-03  1.00621082055E-02
  1.03106422782E-02  1.05653151425E-02  1.08262784265E-02  1.10936875036E-02
  1.13677015850E-02  1.16484838141E-02  1.19362013643E-02  1.22310255380E-02
  1.25331318688E-02  1.28427002260E-02  1.31599149216E-02  1.34849648201E-02
  1.38180434512E-02  1.41593491244E-02  1.45090850478E-02  1.48674594485E-02
  1.52346856969E-02  1.56109824336E-02  1.59965736997E-02  1.63916890701E-02
  1.67965637901E-02  1.72114389157E-02  1.76365614569E-02  1.80721845249E-02
  1.85185674827E-02  1.89759760995E-02  1.94446827092E-02  1.99249663721E-02
  2.04171130415E-02  2.09214157336E-02  2.14381747022E-02  2.19676976174E-02
  2.25102997485E-02  2.30663041523E-02  2.36360418649E-02  2.42198520989E-02
  2.48180824458E-02  2.54310890822E-02  2.60592369825E-02  2.67029001360E-02
  2.73624617693E-02  2.80383145750E-02  2.87308609450E-02  2.94405132104E-02
  3.01676938867E-02  3.09128359257E-02  3.16763829730E-02  3.24587896325E-02
  3.32605217364E-02  3.40820566233E-02  3.49238834219E-02  3.57865033424E-02
  3.66704299750E-02  3.75761895953E-02  3.85043214783E-02  3.94553782189E-02
  4.04299260609E-02  4.14285452346E-02  4.24518303019E-02  4.35003905103E-02
  4.45748501559E-02  4.56758489548E-02  4.68040424240E-02  4.79601022718E-02
  4.91447167979E-02  5.03585913029E-02  5.16024485080E-02  5.28770289862E-02
  5.41830916021E-02  5.55214139647E-02  5.68927928896E-02  5.82980448740E-02
  5.97380065824E-02  6.12135353450E-02  6.27255096680E-02  6.42748297568E-02
  6.58624180518E-02  6.74892197777E-02  6.91562035062E-02  7.08643617328E-02
  7.26147114676E-02  7.44082948408E-02  7.62461797234E-02  7.81294603626E-02
  8.00592580335E-02  8.20367217070E-02  8.40630287331E-02  8.61393855428E-02
  8.82670283657E-02  9.04472239664E-02  9.26812703984E-02  9.49704977772E-02
  9.73162690723E-02  9.97199809184E-02  1.02183064447E-01  1.04706986139E-01
  1.07293248697E-01  1.09943391939E-01  1.12658993720E-01  1.15441670865E-01
  1.18293080135E-01  1.21214919215E-01  1.24208927719E-01  1.27276888234E-01
  1.30420627374E-01  1.33642016870E-01  1.36942974686E-01  1.40325466161E-01
  1.43791505175E-01  1.47343155353E-01  1.50982531290E-01  1.54711799813E-01
  1.58533181269E-01  1.62448950846E-01  1.66461439932E-01  1.70573037498E-01
  1.74786191524E-01  1.79103410455E-01  1.83527264693E-01  1.88060388131E-01
  1.92705479718E-01  1.97465305067E-01  2.02342698102E-01  2.07340562745E-01
  2.12461874645E-01  2.17709682949E-01  2.23087112118E-01  2.28597363787E-01
  2.34243718672E-01  2.40029538524E-01  2.45958268125E-01  2.52033437348E-01
  2.58258663250E-01  2.64637652233E-01  2.71174202243E-01  2.77872205038E-01
  2.84735648503E-01  2.91768619021E-01  2.98975303910E-01  3.06359993917E-01
  3.13927085767E-01  3.21681084785E-01  3.29626607579E-01  3.37768384787E-01
  3.46111263891E-01  3.54660212109E-01  3.63420319348E-01  3.72396801236E-01
  3.81595002227E-01  3.91020398782E-01  4.00678602631E-01  4.10575364116E-01
  4.20716575610E-01  4.31108275028E-01  4.41756649421E-01  4.52668038662E-01
  4.63848939216E-01  4.75306008015E-01  4.87046066413E-01  4.99076104254E-01
  5.11403284029E-01  5.24034945144E-01  5.36978608289E-01  5.50241979914E-01
  5.63832956818E-01  5.77759630851E-01  5.92030293733E-01  6.06653441988E-01
  6.21637782005E-01  6.36992235221E-01  6.52725943431E-01  6.68848274234E-01
  6.85368826607E-01  7.02297436624E-01  7.19644183309E-01  7.37419394637E-01
  7.55633653684E-01  7.74297804930E-01  7.93422960712E-01  8.13020507842E-01
  8.33102114385E-01  8.53679736611E-01  8.74765626105E-01  8.96372337070E-01
  9.18512733795E-01  9.41199998320E-01  9.64447638279E-01  9.88269494944E-01
  1.01267975147E+00  1.03769294133E+00  1.06332395698E+00  1.08958805872E+00
  1.11650088377E+00  1.14407845560E+00  1.17233719345E+00  1.20129392213E+00
  1.23096588201E+00  1.26137073929E+00  1.29252659655E+00  1.32445200349E+00
  1.35716596797E+00  1.39068796738E+00  1.42503796018E+00  1.46023639779E+00
  1.49630423682E+00  1.53326295147E+00  1.57113454637E+00  1.60994156966E+00
  1.64970712644E+00  1.69045489246E+00  1.73220912830E+00  1.77499469377E+00
  1.81883706271E+00  1.86376233816E+00  1.90979726791E+00  1.95696926043E+00
  2.00530640116E+00  2.05483746927E+00  2.10559195476E+00  2.15760007604E+00
  2.21089279792E+00  2.26550185003E+00  2.32145974572E+00  2.37879980144E+00
  2.43755615654E+00  2.49776379360E+00  2.55945855931E+00  2.62267718572E+00
  2.68745731221E+00  2.75383750782E+00  2.82185729426E+00  2.89155716943E+00
  2.96297863152E+00  3.03616420372E+00  3.11115745955E+00  3.18800304880E+00
  3.26674672410E+00  3.34743536819E+00  3.43011702178E+00  3.51484091222E+00
  3.60165748275E+00  3.69061842258E+00  3.78177669761E+00  3.87518658205E+00
  3.97090369062E+00  4.06898501178E+00  4.16948894157E+00  4.27247531843E+00
  4.37800545879E+00  4.48614219363E+00  4.59694990581E+00  4.71049456848E+00
  4.82684378432E+00  4.94606682580E+00  5.06823467639E+00  5.19342007290E+00
  5.32169754870E+00  5.45314347815E+00  5.58783612206E+00  5.72585567428E+00
  5.86728430943E+00  6.01220623188E+00  6.16070772580E+00  6.31287720663E+00
  6.46880527363E+00  6.62858476389E+00  6.79231080756E+00  6.96008088451E+00
  7.13199488236E+00  7.30815515595E+00  7.48866658830E+00  7.67363665303E+00
  7.86317547836E+00  8.05739591268E+00  8.25641359172E+00  8.46034700744E+00
  8.66931757852E+00  8.88344972271E+00  9.10287093086E+00  9.32771184285E+00
  9.55810632537E+00  9.79419155161E+00  1.00361080829E+01  1.02839999526E+01
  1.05380147514E+01  1.07983037158E+01  1.10650218176E+01  1.13383278564E+01
  1.16183845545E+01  1.19053586530E+01  1.21994210117E+01  1.25007467107E+01
  1.28095151545E+01  1.31259101788E+01  1.34501201602E+01  1.37823381282E+01
  1.41227618799E+01  1.44715940984E+01  1.48290424726E+01  1.51953198217E+01
  1.55706442213E+01  1.59552391335E+01  1.63493335401E+01  1.67531620786E+01
  1.71669651819E+01  1.75909892219E+01  1.80254866557E+01  1.84707161761E+01
  1.89269428656E+01  1.93944383544E+01  1.98734809817E+01  2.03643559620E+01
  2.08673555543E+01  2.13827792364E+01  2.19109338836E+01  2.24521339505E+01
  2.30067016591E+01  2.35749671901E+01  2.41572688797E+01  2.47539534210E+01
  2.53653760705E+01  2.59919008594E+01  2.66339008107E+01  2.72917581607E+01
  2.79658645873E+01  2.86566214426E+01  2.93644399922E+01  3.00897416600E+01
  3.08329582790E+01  3.15945323485E+01  3.23749172975E+01  3.31745777547E+01
  3.39939898253E+01  3.48336413740E+01  3.56940323159E+01  3.65756749141E+01
  3.74790940845E+01  3.84048277084E+01  3.93534269528E+01  4.03254565985E+01
  4.13214953765E+01  4.23421363123E+01  4.33879870792E+01  4.44596703601E+01
  4.55578242180E+01  4.66831024761E+01  4.78361751073E+01  4.90177286324E+01
  5.02284665297E+01  5.14691096530E+01  5.27403966614E+01  5.40430844589E+01
  5.53779486450E+01  5.67457839766E+01  5.81474048408E+01  5.95836457404E+01
  6.10553617902E+01  6.25634292264E+01  6.41087459283E+01  6.56922319527E+01
  6.73148300819E+01  6.89775063850E+01  7.06812507927E+01  7.24270776872E+01
  7.42160265061E+01  7.60491623608E+01  7.79275766711E+01
  </PP_R>
  <PP_RAB>
  2.82406097495E-06  2.89381528103E-06  2.96529251847E-06  3.03853524367E-06
  3.11358706419E-06  3.19049266468E-06  3.26929783350E-06  3.35004948998E-06
  3.43279571239E-06  3.51758576648E-06  3.60447013491E-06  3.69350054725E-06
  3.78473001076E-06  3.87821284203E-06  3.97400469923E-06  4.07216261530E-06
  4.17274503190E-06  4.27581183419E-06  4.38142438649E-06  4.48964556884E-06
  4.60053981439E-06  4.71417314780E-06  4.83061322455E-06  4.94992937120E-06
  5.07219262667E-06  5.19747578455E-06  5.32585343642E-06  5.45740201630E-06
  5.59219984611E-06  5.73032718231E-06  5.87186626371E-06  6.01690136042E-06
  6.16551882402E-06  6.31780713898E-06  6.47385697531E-06  6.63376124260E-06
  6.79761514529E-06  6.96551623938E-06  7.13756449049E-06  7.31386233341E-06
  7.49451473304E-06  7.67962924695E-06  7.86931608935E-06  8.06368819676E-06
  8.26286129522E-06  8.46695396921E-06  8.67608773225E-06  8.89038709924E-06
  9.10997966059E-06  9.33499615820E-06  9.56557056331E-06  9.80184015622E-06
  1.00439456081E-05  1.02920310646E-05  1.05462442319E-05  1.08067364644E-05
  1.10736628551E-05  1.13471823276E-05  1.16274577311E-05  1.19146559371E-05
  1.22089479387E-05  1.25105089528E-05  1.28195185239E-05  1.31361606315E-05
  1.34606237991E-05  1.37931012069E-05  1.41337908067E-05  1.44828954396E-05
  1.48406229570E-05  1.52071863440E-05  1.55828038467E-05  1.59676991018E-05
  1.63621012696E-05  1.67662451709E-05  1.71803714267E-05  1.76047266009E-05
  1.80395633479E-05  1.84851405626E-05  1.89417235345E-05  1.94095841058E-05
  1.98890008332E-05  2.03802591538E-05  2.08836515549E-05  2.13994777483E-05
  2.19280448487E-05  2.24696675565E-05  2.30246683451E-05  2.35933776532E-05
  2.41761340813E-05  2.47732845931E-05  2.53851847225E-05  2.60121987852E-05
  2.66547000952E-05  2.73130711875E-05  2.79877040459E-05  2.86790003358E-05
  2.93873716441E-05  3.01132397237E-05  3.08570367449E-05  3.16192055525E-05
  3.24001999296E-05  3.32004848679E-05  3.40205368441E-05  3.48608441042E-05
  3.57219069535E-05  3.66042380553E-05  3.75083627352E-05  3.84348192948E-05
  3.93841593314E-05  4.03569480669E-05  4.13537646841E-05  4.23752026718E-05
  4.34218701778E-05  4.44943903712E-05  4.55934018134E-05  4.67195588382E-05
  4.78735319415E-05  4.90560081804E-05  5.02676915825E-05  5.15093035646E-05
  5.27815833626E-05  5.40852884717E-05  5.54211950969E-05  5.67900986158E-05
  5.81928140516E-05  5.96301765587E-05  6.11030419197E-05  6.26122870551E-05
  6.41588105454E-05  6.57435331659E-05  6.73673984350E-05  6.90313731764E-05
  7.07364480939E-05  7.24836383618E-05  7.42739842293E-05  7.61085516398E-05
  7.79884328653E-05  7.99147471570E-05  8.18886414118E-05  8.39112908547E-05
  8.59838997388E-05  8.81077020624E-05  9.02839623033E-05  9.25139761722E-05
  9.47990713836E-05  9.71406084468E-05  9.95399814755E-05  1.01998619018E-04
  1.04517984908E-04  1.07099579135E-04  1.09744938739E-04  1.12455638726E-04
  1.15233293003E-04  1.18079555340E-04  1.20996120357E-04  1.23984724530E-04
  1.27047147226E-04  1.30185211762E-04  1.33400786493E-04  1.36695785919E-04
  1.40072171831E-04  1.43531954475E-04  1.47077193751E-04  1.50710000437E-04
  1.54432537447E-04  1.58247021122E-04  1.62155722544E-04  1.66160968891E-04
  1.70265144823E-04  1.74470693900E-04  1.78780120039E-04  1.83195989004E-04
  1.87720929932E-04  1.92357636902E-04  1.97108870533E-04  2.01977459635E-04
  2.06966302888E-04  2.12078370570E-04  2.17316706323E-04  2.22684428969E-04
  2.28184734364E-04  2.33820897303E-04  2.39596273467E-04  2.45514301421E-04
  2.51578504666E-04  2.57792493732E-04  2.64159968327E-04  2.70684719544E-04
  2.77370632117E-04  2.84221686731E-04  2.91241962393E-04  2.98435638864E-04
  3.05806999144E-04  3.13360432023E-04  3.21100434694E-04  3.29031615431E-04
  3.37158696332E-04  3.45486516131E-04  3.54020033080E-04  3.62764327897E-04
  3.71724606796E-04  3.80906204583E-04  3.90314587837E-04  3.99955358156E-04
  4.09834255503E-04  4.19957161614E-04  4.30330103505E-04  4.40959257062E-04
  4.51850950712E-04  4.63011669194E-04  4.74448057423E-04  4.86166924442E-04
  4.98175247475E-04  5.10480176088E-04  5.23089036437E-04  5.36009335637E-04
  5.49248766227E-04  5.62815210753E-04  5.76716746459E-04  5.90961650096E-04
  6.05558402854E-04  6.20515695404E-04  6.35842433081E-04  6.51547741178E-04
  6.67640970385E-04  6.84131702354E-04  7.01029755402E-04  7.18345190360E-04
  7.36088316562E-04  7.54269697981E-04  7.72900159521E-04  7.91990793461E-04
  8.11552966060E-04  8.31598324321E-04  8.52138802932E-04  8.73186631365E-04
  8.94754341159E-04  9.16854773386E-04  9.39501086289E-04  9.62706763120E-04
  9.86485620169E-04  1.01085181499E-03  1.03581985482E-03  1.06140460523E-03
  1.08762129898E-03  1.11448554507E-03  1.14201333803E-03  1.17022106748E-03
  1.19912552784E-03  1.22874392838E-03  1.25909390341E-03  1.29019352283E-03
  1.32206130284E-03  1.35471621702E-03  1.38817770758E-03  1.42246569696E-03
  1.45760059967E-03  1.49360333449E-03  1.53049533685E-03  1.56829857167E-03
  1.60703554639E-03  1.64672932438E-03  1.68740353870E-03  1.72908240610E-03
  1.77179074153E-03  1.81555397285E-03  1.86039815598E-03  1.90634999043E-03
  1.95343683519E-03  2.00168672502E-03  2.05112838713E-03  2.10179125829E-03
  2.15370550237E-03  2.20690202828E-03  2.26141250838E-03  2.31726939734E-03
  2.37450595145E-03  2.43315624845E-03  2.49325520779E-03  2.55483861142E-03
  2.61794312512E-03  2.68260632032E-03  2.74886669643E-03  2.81676370383E-03
  2.88633776731E-03  2.95763031017E-03  3.03068377883E-03  3.10554166816E-03
  3.18224854737E-03  3.26085008649E-03  3.34139308362E-03  3.42392549279E-03
  3.50849645246E-03  3.59515631484E-03  3.68395667581E-03  3.77495040571E-03
  3.86819168073E-03  3.96373601524E-03  4.06164029482E-03  4.16196281010E-03
  4.26476329151E-03  4.37010294481E-03  4.47804448755E-03  4.58865218639E-03
  4.70199189539E-03  4.81813109521E-03  4.93713893326E-03  5.05908626491E-03
  5.18404569566E-03  5.31209162434E-03  5.44330028746E-03  5.57774980456E-03
  5.71552022473E-03  5.85669357428E-03  6.00135390557E-03  6.14958734704E-03
  6.30148215451E-03  6.45712876372E-03  6.61661984419E-03  6.78005035434E-03
  6.94751759809E-03  7.11912128276E-03  7.29496357845E-03  7.47514917884E-03
  7.65978536355E-03  7.84898206203E-03  8.04285191896E-03  8.24151036136E-03
  8.44507566729E-03  8.65366903627E-03  8.86741466147E-03  9.08643980360E-03
  9.31087486675E-03  9.54085347596E-03  9.77651255682E-03  1.00179924170E-02
  1.02654368297E-02  1.05189931194E-02  1.07788122494E-02  1.10450489120E-02
  1.13178616201E-02  1.15974128021E-02  1.18838688983E-02  1.21774004601E-02
  1.24781822515E-02  1.27863933531E-02  1.31022172689E-02  1.34258420355E-02
  1.37574603337E-02  1.40972696040E-02  1.44454721632E-02  1.48022753256E-02
  1.51678915262E-02  1.55425384469E-02  1.59264391465E-02  1.63198221934E-02
  1.67229218016E-02  1.71359779701E-02  1.75592366260E-02  1.79929497706E-02
  1.84373756300E-02  1.88927788080E-02  1.93594304446E-02  1.98376083766E-02
  2.03275973035E-02  2.08296889568E-02  2.13441822741E-02  2.18713835763E-02
  2.24116067506E-02  2.29651734373E-02  2.35324132212E-02  2.41136638278E-02
  2.47092713243E-02  2.53195903260E-02  2.59449842071E-02  2.65858253170E-02
  2.72424952023E-02  2.79153848338E-02  2.86048948392E-02  2.93114357418E-02
  3.00354282046E-02  3.07773032812E-02  3.15375026723E-02  3.23164789883E-02
  3.31146960193E-02  3.39326290110E-02  3.47707649476E-02  3.56296028418E-02
  3.65096540320E-02  3.74114424865E-02  3.83355051160E-02  3.92823920923E-02
  4.02526671770E-02  4.12469080563E-02  4.22657066853E-02  4.33096696404E-02
  4.43794184805E-02  4.54755901170E-02  4.65988371929E-02  4.77498284715E-02
  4.89292492348E-02  5.01378016909E-02  5.13762053926E-02  5.26451976658E-02
  5.39455340482E-02  5.52779887392E-02  5.66433550610E-02  5.80424459310E-02
  5.94760943455E-02  6.09451538759E-02  6.24504991766E-02  6.39930265063E-02
  6.55736542610E-02  6.71933235212E-02  6.88529986122E-02  7.05536676779E-02
  7.22963432696E-02  7.40820629483E-02  7.59118899031E-02  7.77869135838E-02
  7.97082503493E-02  8.16770441329E-02  8.36944671230E-02  8.57617204609E-02
  8.78800349563E-02  9.00506718197E-02  9.22749234137E-02  9.45541140220E-02
  9.68896006383E-02  9.92827737741E-02  1.01735058286E-01  1.04247914226E-01
  1.06822837707E-01  1.09461361799E-01  1.12165057435E-01  1.14935534354E-01
  1.17774442052E-01  1.20683470771E-01  1.23664352499E-01  1.26718862006E-01
  1.29848817897E-01  1.33056083699E-01  1.36342568967E-01  1.39710230420E-01
  1.43161073112E-01  1.46697151618E-01  1.50320571262E-01  1.54033489373E-01
  1.57838116560E-01  1.61736718039E-01  1.65731614975E-01  1.69825185865E-01
  1.74019867956E-01  1.78318158694E-01  1.82722617214E-01  1.87235865859E-01
  1.91860591746E-01  1.96599548362E-01  2.01455557206E-01  2.06431509469E-01
  2.11530367753E-01  2.16755167837E-01  2.22109020482E-01  2.27595113288E-01
  2.33216712586E-01  2.38977165387E-01  2.44879901372E-01  2.50928434936E-01
  2.57126367279E-01  2.63477388551E-01  2.69985280048E-01  2.76653916465E-01
  2.83487268202E-01  2.90489403727E-01  2.97664491999E-01  3.05016804951E-01
  3.12550720033E-01  3.20270722818E-01  3.28181409672E-01  3.36287490491E-01
  3.44593791506E-01  3.53105258156E-01  3.61826958032E-01  3.70764083896E-01
  3.79921956768E-01  3.89306029100E-01  3.98921888019E-01  4.08775258653E-01
  4.18872007542E-01  4.29218146128E-01  4.39819834337E-01  4.50683384246E-01
  4.61815263836E-01  4.73222100853E-01  4.84910686744E-01  4.96887980707E-01
  5.09161113830E-01  5.21737393342E-01  5.34624306958E-01  5.47829527339E-01
  5.61360916665E-01  5.75226531306E-01  5.89434626630E-01  6.03993661907E-01
  6.18912305356E-01  6.34199439299E-01  6.49864165449E-01  6.65915810336E-01
  6.82363930851E-01  6.99218319943E-01  7.16489012446E-01  7.34186291053E-01
  7.52320692442E-01  7.70903013546E-01  7.89944317980E-01  8.09455942634E-01
  8.29449504417E-01  8.49936907177E-01  8.70930348784E-01  8.92442328399E-01
  9.14485653910E-01  9.37073449562E-01  9.60219163766E-01  9.83936577111E-01
  1.00823981057E+00  1.03314333389E+00  1.05866197423E+00  1.08481092500E+00
  1.11160575484E+00  1.13906241699E+00  1.16719725869E+00  1.19602703098E+00
  1.22556889864E+00  1.25584045044E+00  1.28685970957E+00  1.31864514439E+00
  1.35121567946E+00  1.38459070674E+00  1.41879009720E+00  1.45383421260E+00
  1.48974391765E+00  1.52654059242E+00  1.56424614505E+00  1.60288302483E+00
  1.64247423554E+00  1.68304334916E+00  1.72461451989E+00  1.76721249853E+00
  1.81086264724E+00  1.85559095463E+00  1.90142405121E+00
  </PP_RAB>
</PP_MESH>


<PP_LOCAL>
 -6.22252020477E+00 -6.22252088345E+00 -6.22252158144E+00 -6.22252230005E+00
 -6.22252304066E+00 -6.22252380470E+00 -6.22252459368E+00 -6.22252540915E+00
 -6.22252625277E+00 -6.22252712623E+00 -6.22252803133E+00 -6.22252896995E+00
 -6.22252994404E+00 -6.22253095565E+00 -6.22253200693E+00 -6.22253310013E+00
 -6.22253423759E+00 -6.22253542179E+00 -6.22253665530E+00 -6.22253794084E+00
 -6.22253928122E+00 -6.22254067944E+00 -6.22254213859E+00 -6.22254366195E+00
 -6.22254525294E+00 -6.22254691513E+00 -6.22254865231E+00 -6.22255046840E+00
 -6.22255236756E+00 -6.22255435412E+00 -6.22255643264E+00 -6.22255860789E+00
 -6.22256088488E+00 -6.22256326887E+00 -6.22256576539E+00 -6.22256838021E+00
 -6.22257111941E+00 -6.22257398937E+00 -6.22257699677E+00 -6.22258014863E+00
 -6.22258345233E+00 -6.22258691560E+00 -6.22259054654E+00 -6.22259435369E+00
 -6.22259834597E+00 -6.22260253278E+00 -6.22260692397E+00 -6.22261152988E+00
 -6.22261636136E+00 -6.22262142981E+00 -6.22262674720E+00 -6.22263232607E+00
 -6.22263817962E+00 -6.22264432168E+00 -6.22265076679E+00 -6.22265753020E+00
 -6.22266462792E+00 -6.22267207676E+00 -6.22267989439E+00 -6.22268809932E+00
 -6.22269671101E+00 -6.22270574990E+00 -6.22271523742E+00 -6.22272519610E+00
 -6.22273564957E+00 -6.22274662267E+00 -6.22275814144E+00 -6.22277023324E+00
 -6.22278292682E+00 -6.22279625232E+00 -6.22281024143E+00 -6.22282492738E+00
 -6.22284034510E+00 -6.22285653123E+00 -6.22287352427E+00 -6.22289136463E+00
 -6.22291009474E+00 -6.22292975914E+00 -6.22295040461E+00 -6.22297208026E+00
 -6.22299483767E+00 -6.22301873098E+00 -6.22304381703E+00 -6.22307015551E+00
 -6.22309780911E+00 -6.22312684363E+00 -6.22315732816E+00 -6.22318933524E+00
 -6.22322294107E+00 -6.22325822561E+00 -6.22329527284E+00 -6.22333417094E+00
 -6.22337501249E+00 -6.22341789471E+00 -6.22346291965E+00 -6.22351019448E+00
 -6.22355983174E+00 -6.22361194956E+00 -6.22366667200E+00 -6.22372412930E+00
 -6.22378445824E+00 -6.22384780239E+00 -6.22391431254E+00 -6.22398414697E+00
 -6.22405747191E+00 -6.22413446187E+00 -6.22421530008E+00 -6.22430017894E+00
 -6.22438930045E+00 -6.22448287670E+00 -6.22458113039E+00 -6.22468429531E+00
 -6.22479261696E+00 -6.22490635310E+00 -6.22502577434E+00 -6.22515116483E+00
 -6.22528282290E+00 -6.22542106176E+00 -6.22556621029E+00 -6.22571861375E+00
 -6.22587863468E+00 -6.22604665368E+00 -6.22622307035E+00 -6.22640830427E+00
 -6.22660279590E+00 -6.22680700771E+00 -6.22702142524E+00 -6.22724655825E+00
 -6.22748294192E+00 -6.22773113810E+00 -6.22799173668E+00 -6.22826535695E+00
 -6.22855264905E+00 -6.22885429555E+00 -6.22917101299E+00 -6.22950355364E+00
 -6.22985270721E+00 -6.23021930273E+00 -6.23060421050E+00 -6.23100834414E+00
 -6.23143266272E+00 -6.23187817298E+00 -6.23234593177E+00 -6.23283704841E+00
 -6.23335268738E+00 -6.23389407095E+00 -6.23446248212E+00 -6.23505926752E+00
 -6.23568584057E+00 -6.23634368478E+00 -6.23703435715E+00 -6.23775949178E+00
 -6.23852080365E+00 -6.23932009255E+00 -6.24015924721E+00 -6.24104024966E+00
 -6.24196517970E+00 -6.24293621970E+00 -6.24395565949E+00 -6.24502590160E+00
 -6.24614946666E+00 -6.24732899904E+00 -6.24856727280E+00 -6.24986719783E+00
 -6.25123182634E+00 -6.25266435957E+00 -6.25416815479E+00 -6.25574673264E+00
 -6.25740378474E+00 -6.25914318160E+00 -6.26096898089E+00 -6.26288543600E+00
 -6.26489700495E+00 -6.26700835960E+00 -6.26922439522E+00 -6.27155024040E+00
 -6.27399126726E+00 -6.27655310204E+00 -6.27924163592E+00 -6.28206303625E+00
 -6.28502375800E+00 -6.28813055551E+00 -6.29139049450E+00 -6.29481096424E+00
 -6.29839968998E+00 -6.30216474542E+00 -6.30611456532E+00 -6.31025795809E+00
 -6.31460411827E+00 -6.31916263892E+00 -6.32394352366E+00 -6.32895719834E+00
 -6.33421452216E+00 -6.33972679808E+00 -6.34550578231E+00 -6.35156369267E+00
 -6.35791321559E+00 -6.36456751146E+00 -6.37154021798E+00 -6.37884545118E+00
 -6.38649780371E+00 -6.39451233997E+00 -6.40290458748E+00 -6.41169052406E+00
 -6.42088656012E+00 -6.43050951543E+00 -6.44057658953E+00 -6.45110532516E+00
 -6.46211356353E+00 -6.47361939077E+00 -6.48564107433E+00 -6.49819698831E+00
 -6.51130552651E+00 -6.52498500200E+00 -6.53925353192E+00 -6.55412890614E+00
 -6.56962843847E+00 -6.58576879905E+00 -6.60256582655E+00 -6.62003431895E+00
 -6.63818780158E+00 -6.65703827147E+00 -6.67659591704E+00 -6.69686881250E+00
 -6.71786258665E+00 -6.73958006600E+00 -6.76202089292E+00 -6.78518111972E+00
 -6.80905278050E+00 -6.83362344315E+00 -6.85887574497E+00 -6.88478691617E+00
 -6.91132829662E+00 -6.93846485243E+00 -6.96615470009E+00 -6.99434864726E+00
 -7.02298976060E+00 -7.05201297228E+00 -7.08134473812E+00 -7.11090276148E+00
 -7.14059579799E+00 -7.17032355691E+00 -7.19997671551E+00 -7.22943706283E+00
 -7.25857778877E+00 -7.28726393372E+00 -7.31535301214E+00 -7.34269582152E+00
 -7.36913744517E+00 -7.39451845335E+00 -7.41867630338E+00 -7.44144693348E+00
 -7.46266654012E+00 -7.48217352159E+00 -7.49981056442E+00 -7.51542684221E+00
 -7.52888028959E+00 -7.54003990803E+00 -7.54878805434E+00 -7.55502265823E+00
 -7.55865931196E+00 -7.55963317398E+00 -7.55790062837E+00 -7.55344064501E+00
 -7.54625579007E+00 -7.53637284361E+00 -7.52384299067E+00 -7.50874156341E+00
 -7.49116732466E+00 -7.47124129759E+00 -7.44910516013E+00 -7.42491923767E+00
 -7.39886014021E+00 -7.37111810282E+00 -7.34189409734E+00 -7.31139679071E+00
 -7.27983942927E+00 -7.24743672937E+00 -7.21440185220E+00 -7.18094353573E+00
 -7.14726344836E+00 -7.11355381925E+00 -7.07999538796E+00 -7.04675570408E+00
 -7.01398779408E+00 -6.98182920023E+00 -6.95040138458E+00 -6.91980948092E+00
 -6.89014236825E+00 -6.86147303317E+00 -6.83385918311E+00 -6.80734406959E+00
 -6.78195747947E+00 -6.75771685254E+00 -6.73462848563E+00 -6.71268878635E+00
 -6.69188554314E+00 -6.67219918280E+00 -6.65360399084E+00 -6.63606927508E+00
 -6.61956045694E+00 -6.60404007940E+00 -6.58946872440E+00 -6.57580583586E+00
 -6.56301044745E+00 -6.55104181678E+00 -6.53985996962E+00 -6.52942615931E+00
 -6.51970324778E+00 -6.51065601511E+00 -6.50225140537E+00 -6.49445871638E+00
 -6.48724974116E+00 -6.48059886869E+00 -6.47448315116E+00 -6.46888234459E+00
 -6.46377892928E+00 -6.45915811607E+00 -6.45500784373E+00 -6.45131877275E+00
 -6.44808427995E+00 -6.44530045821E+00 -6.44296612514E+00 -6.44108284434E+00
 -6.43965496238E+00 -6.43868966479E+00 -6.43819705370E+00 -6.43819024991E+00
 -6.43868552189E+00 -6.43970244386E+00 -6.44126408512E+00 -6.44339723224E+00
 -6.44613264557E+00 -6.44950535098E+00 -6.45355496723E+00 -6.45832606853E+00
 -6.46386858130E+00 -6.47023821290E+00 -6.47749690908E+00 -6.48571333550E+00
 -6.49496337740E+00 -6.50533064966E+00 -6.51690700798E+00 -6.52979304993E+00
 -6.54409859307E+00 -6.55994311517E+00 -6.57745614020E+00 -6.59677755193E+00
 -6.61805781571E+00 -6.64145808798E+00 -6.66715019233E+00 -6.69531644072E+00
 -6.72614927883E+00 -6.75985073511E+00 -6.79663165481E+00 -6.83671070184E+00
 -6.88031311358E+00 -6.92766919591E+00 -6.97901254761E+00 -7.03457800353E+00
 -7.09459928467E+00 -7.15930633806E+00 -7.22892233971E+00 -7.30366031791E+00
 -7.38371933096E+00 -7.46928010253E+00 -7.56049998018E+00 -7.65750704026E+00
 -7.76039311651E+00 -7.86920548134E+00 -7.98393684843E+00 -8.10451326935E+00
 -8.23077931556E+00 -8.36247958646E+00 -8.49923495547E+00 -8.64051096495E+00
 -8.78557443472E+00 -8.93343302468E+00 -9.08275223241E+00 -9.23174719317E+00