<PP_INFO>
Generated using "atomic" code by A. Dal Corso  (Quantum ESPRESSO distributi
Author: Davide Ceresoli   Generation date: 12Jul2012                       
Zn                                                                         
    1        The Pseudo was generated with a Scalar-Relativistic Calculation
    0 2.0000000E+00    L component and cutoff radius for Local Potential
nl pn  l   occ               Rcut            Rcut US             E pseu
3D  3  2 10.00      2.00000000000      2.00000000000     -1.45235022830
4P  2  1  0.00      2.00000000000      2.00000000000     -0.57163666293
4S  1  0  1.00      2.00000000000      2.00000000000     -1.02881678589
</PP_INFO>


<PP_HEADER>
   0                   Version Number
  Zn                   Element
   NC                  Norm - Conserving pseudopotential
    T                  Nonlinear Core Correction
 SLA  PW   PBX  PBC    PBE    Exchange-Correlation functional
   12.00000000000      Z valence
 -132.28870886019      Total energy
      0.000      0.000 Suggested cutoff for wfc and rho
    2                  Max angular momentum component
 1601                  Number of points in mesh
    5    2             Number of Wavefunctions, Number of Projectors
 Wavefunctions         nl  l   occ
                       4S  0  1.00
                       5S  0  0.00
                       4P  1  0.00
                       5P  1  0.00
                       3D  2 10.00
</PP_HEADER>


<PP_MESH>
  <PP_R>
  1.11820875968E-05  1.12944694454E-05  1.14079807505E-05  1.15226328631E-05
  1.16384372487E-05  1.17554054876E-05  1.18735492769E-05  1.19928804310E-05
  1.21134108832E-05  1.22351526865E-05  1.23581180153E-05  1.24823191662E-05
  1.26077685594E-05  1.27344787400E-05  1.28624623791E-05  1.29917322751E-05
  1.31223013552E-05  1.32541826763E-05  1.33873894268E-05  1.35219349273E-05
  1.36578326327E-05  1.37950961326E-05  1.39337391537E-05  1.40737755603E-05
  1.42152193562E-05  1.43580846859E-05  1.45023858360E-05  1.46481372367E-05
  1.47953534634E-05  1.49440492378E-05  1.50942394296E-05  1.52459390578E-05
  1.53991632927E-05  1.55539274568E-05  1.57102470265E-05  1.58681376341E-05
  1.60276150686E-05  1.61886952780E-05  1.63513943704E-05  1.65157286159E-05
  1.66817144480E-05  1.68493684655E-05  1.70187074338E-05  1.71897482871E-05
  1.73625081295E-05  1.75370042372E-05  1.77132540599E-05  1.78912752228E-05
  1.80710855282E-05  1.82527029571E-05  1.84361456716E-05  1.86214320160E-05
  1.88085805191E-05  1.89976098959E-05  1.91885390496E-05  1.93813870731E-05
  1.95761732515E-05  1.97729170636E-05  1.99716381838E-05  2.01723564845E-05
  2.03750920377E-05  2.05798651170E-05  2.07866962000E-05  2.09956059699E-05
  2.12066153180E-05  2.14197453452E-05  2.16350173648E-05  2.18524529042E-05
  2.20720737071E-05  2.22939017357E-05  2.25179591731E-05  2.27442684252E-05
  2.29728521231E-05  2.32037331253E-05  2.34369345202E-05  2.36724796281E-05
  2.39103920036E-05  2.41506954383E-05  2.43934139627E-05  2.46385718488E-05
  2.48861936126E-05  2.51363040165E-05  2.53889280717E-05  2.56440910409E-05
  2.59018184406E-05  2.61621360437E-05  2.64250698822E-05  2.66906462497E-05
  2.69588917041E-05  2.72298330702E-05  2.75034974422E-05  2.77799121869E-05
  2.80591049460E-05  2.83411036389E-05  2.86259364658E-05  2.89136319102E-05
  2.92042187419E-05  2.94977260199E-05  2.97941830950E-05  3.00936196132E-05
  3.03960655185E-05  3.07015510556E-05  3.10101067735E-05  3.13217635279E-05
  3.16365524847E-05  3.19545051231E-05  3.22756532387E-05  3.26000289465E-05
  3.29276646844E-05  3.32585932161E-05  3.35928476350E-05  3.39304613665E-05
  3.42714681725E-05  3.46159021538E-05  3.49637977543E-05  3.53151897636E-05
  3.56701133213E-05  3.60286039201E-05  3.63906974093E-05  3.67564299986E-05
  3.71258382615E-05  3.74989591392E-05  3.78758299440E-05  3.82564883634E-05
  3.86409724635E-05  3.90293206930E-05  3.94215718872E-05  3.98177652714E-05
  4.02179404653E-05  4.06221374867E-05  4.10303967558E-05  4.14427590987E-05
  4.18592657521E-05  4.22799583669E-05  4.27048790128E-05  4.31340701822E-05
  4.35675747945E-05  4.40054362007E-05  4.44476981871E-05  4.48944049804E-05
  4.53456012516E-05  4.58013321207E-05  4.62616431612E-05  4.67265804046E-05
  4.71961903449E-05  4.76705199436E-05  4.81496166340E-05  4.86335283262E-05
  4.91223034118E-05  4.96159907686E-05  5.01146397659E-05  5.06183002689E-05
  5.11270226441E-05  5.16408577642E-05  5.21598570131E-05  5.26840722912E-05
  5.32135560204E-05  5.37483611496E-05  5.42885411596E-05  5.48341500690E-05
  5.53852424391E-05  5.59418733796E-05  5.65040985541E-05  5.70719741855E-05
  5.76455570619E-05  5.82249045420E-05  5.88100745611E-05  5.94011256367E-05
  5.99981168744E-05  6.06011079737E-05  6.12101592343E-05  6.18253315619E-05
  6.24466864741E-05  6.30742861070E-05  6.37081932211E-05  6.43484712076E-05
  6.49951840948E-05  6.56483965547E-05  6.63081739088E-05  6.69745821357E-05
  6.76476878765E-05  6.83275584425E-05  6.90142618213E-05  6.97078666838E-05
  7.04084423911E-05  7.11160590013E-05  7.18307872766E-05  7.25526986905E-05
  7.32818654348E-05  7.40183604266E-05  7.47622573162E-05  7.55136304938E-05
  7.62725550974E-05  7.70391070201E-05  7.78133629176E-05  7.85954002163E-05
  7.93852971206E-05  8.01831326207E-05  8.09889865008E-05  8.18029393471E-05
  8.26250725555E-05  8.34554683401E-05  8.42942097410E-05  8.51413806331E-05
  8.59970657342E-05  8.68613506136E-05  8.77343217004E-05  8.86160662925E-05
  8.95066725651E-05  9.04062295796E-05  9.13148272923E-05  9.22325565638E-05
  9.31595091679E-05  9.40957778005E-05  9.50414560893E-05  9.59966386029E-05
  9.69614208604E-05  9.79358993408E-05  9.89201714927E-05  9.99143357442E-05
  1.00918491513E-04  1.01932739214E-04  1.02957180275E-04  1.03991917139E-04
  1.05037053281E-04  1.06092693217E-04  1.07158942510E-04  1.08235907787E-04
  1.09323696745E-04  1.10422418163E-04  1.11532181916E-04  1.12653098979E-04
  1.13785281447E-04  1.14928842537E-04  1.16083896607E-04  1.17250559164E-04
  1.18428946874E-04  1.19619177578E-04  1.20821370299E-04  1.22035645258E-04
  1.23262123883E-04  1.24500928823E-04  1.25752183960E-04  1.27016014420E-04
  1.28292546587E-04  1.29581908116E-04  1.30884227944E-04  1.32199636303E-04
  1.33528264736E-04  1.34870246107E-04  1.36225714615E-04  1.37594805809E-04
  1.38977656597E-04  1.40374405267E-04  1.41785191494E-04  1.43210156358E-04
  1.44649442358E-04  1.46103193422E-04  1.47571554928E-04  1.49054673712E-04
  1.50552698087E-04  1.52065777858E-04  1.53594064333E-04  1.55137710343E-04
  1.56696870253E-04  1.58271699980E-04  1.59862357010E-04  1.61469000408E-04
  1.63091790841E-04  1.64730890589E-04  1.66386463564E-04  1.68058675323E-04
  1.69747693090E-04  1.71453685768E-04  1.73176823957E-04  1.74917279973E-04
  1.76675227862E-04  1.78450843422E-04  1.80244304215E-04  1.82055789588E-04
  1.83885480692E-04  1.85733560497E-04  1.87600213813E-04  1.89485627307E-04
  1.91389989522E-04  1.93313490895E-04  1.95256323778E-04  1.97218682456E-04
  1.99200763167E-04  2.01202764120E-04  2.03224885517E-04  2.05267329572E-04
  2.07330300531E-04  2.09414004693E-04  2.11518650430E-04  2.13644448209E-04
  2.15791610610E-04  2.17960352352E-04  2.20150890310E-04  2.22363443542E-04
  2.24598233303E-04  2.26855483074E-04  2.29135418583E-04  2.31438267825E-04
  2.33764261086E-04  2.36113630968E-04  2.38486612410E-04  2.40883442713E-04
  2.43304361560E-04  2.45749611046E-04  2.48219435697E-04  2.50714082500E-04
  2.53233800919E-04  2.55778842930E-04  2.58349463038E-04  2.60945918308E-04
  2.63568468386E-04  2.66217375532E-04  2.68892904637E-04  2.71595323256E-04
  2.74324901634E-04  2.77081912731E-04  2.79866632250E-04  2.82679338665E-04
  2.85520313250E-04  2.88389840104E-04  2.91288206182E-04  2.94215701324E-04
  2.97172618281E-04  3.00159252748E-04  3.03175903390E-04  3.06222871875E-04
  3.09300462902E-04  3.12408984234E-04  3.15548746724E-04  3.18720064351E-04
  3.21923254251E-04  3.25158636745E-04  3.28426535373E-04  3.31727276928E-04
  3.35061191488E-04  3.38428612446E-04  3.41829876547E-04  3.45265323920E-04
  3.48735298114E-04  3.52240146128E-04  3.55780218451E-04  3.59355869091E-04
  3.62967455618E-04  3.66615339194E-04  3.70299884608E-04  3.74021460320E-04
  3.77780438489E-04  3.81577195017E-04  3.85412109582E-04  3.89285565680E-04
  3.93197950658E-04  3.97149655760E-04  4.01141076157E-04  4.05172610997E-04
  4.09244663436E-04  4.13357640681E-04  4.17511954036E-04  4.21708018934E-04
  4.25946254985E-04  4.30227086016E-04  4.34550940115E-04  4.38918249669E-04
  4.43329451415E-04  4.47784986475E-04  4.52285300407E-04  4.56830843245E-04
  4.61422069549E-04  4.66059438445E-04  4.70743413672E-04  4.75474463633E-04
  4.80253061437E-04  4.85079684947E-04  4.89954816830E-04  4.94878944603E-04
  4.99852560683E-04  5.04876162435E-04  5.09950252224E-04  5.15075337464E-04
  5.20251930666E-04  5.25480549495E-04  5.30761716817E-04  5.36095960753E-04
  5.41483814732E-04  5.46925817543E-04  5.52422513392E-04  5.57974451953E-04
  5.63582188424E-04  5.69246283583E-04  5.74967303845E-04  5.80745821316E-04
  5.86582413854E-04  5.92477665122E-04  5.98432164650E-04  6.04446507893E-04
  6.10521296291E-04  6.16657137327E-04  6.22854644591E-04  6.29114437838E-04
  6.35437143054E-04  6.41823392513E-04  6.48273824846E-04  6.54789085102E-04
  6.61369824812E-04  6.68016702056E-04  6.74730381527E-04  6.81511534598E-04
  6.88360839390E-04  6.95278980840E-04  7.02266650768E-04  7.09324547946E-04
  7.16453378170E-04  7.23653854328E-04  7.30926696475E-04  7.38272631901E-04
  7.45692395206E-04  7.53186728371E-04  7.60756380836E-04  7.68402109574E-04
  7.76124679163E-04  7.83924861867E-04  7.91803437710E-04  7.99761194557E-04
  8.07798928190E-04  8.15917442388E-04  8.24117549011E-04  8.32400068076E-04
  8.40765827841E-04  8.49215664889E-04  8.57750424212E-04  8.66370959292E-04
  8.75078132190E-04  8.83872813630E-04  8.92755883088E-04  9.01728228878E-04
  9.10790748243E-04  9.19944347442E-04  9.29189941842E-04  9.38528456010E-04
  9.47960823806E-04  9.57487988475E-04  9.67110902740E-04  9.76830528901E-04
  9.86647838930E-04  9.96563814564E-04  1.00657944741E-03  1.01669573904E-03
  1.02691370109E-03  1.03723435537E-03  1.04765873395E-03  1.05818787927E-03
  1.06882284426E-03  1.07956469243E-03  1.09041449797E-03  1.10137334586E-03
  1.11244233201E-03  1.12362256332E-03  1.13491515782E-03  1.14632124478E-03
  1.15784196482E-03  1.16947847003E-03  1.18123192405E-03  1.19310350226E-03
  1.20509439180E-03  1.21720579179E-03  1.22943891337E-03  1.24179497987E-03
  1.25427522691E-03  1.26688090251E-03  1.27961326725E-03  1.29247359439E-03
  1.30546316997E-03  1.31858329295E-03  1.33183527536E-03  1.34522044240E-03
  1.35874013261E-03  1.37239569797E-03  1.38618850404E-03  1.40011993011E-03
  1.41419136935E-03  1.42840422890E-03  1.44275993007E-03  1.45725990843E-03
  1.47190561399E-03  1.48669851134E-03  1.50164007979E-03  1.51673181349E-03
  1.53197522163E-03  1.54737182858E-03  1.56292317400E-03  1.57863081304E-03
  1.59449631647E-03  1.61052127087E-03  1.62670727873E-03  1.64305595868E-03
  1.65956894560E-03  1.67624789079E-03  1.69309446216E-03  1.71011034440E-03
  1.72729723909E-03  1.74465686495E-03  1.76219095795E-03  1.77990127151E-03
  1.79778957668E-03  1.81585766231E-03  1.83410733521E-03  1.85254042038E-03
  1.87115876114E-03  1.88996421933E-03  1.90895867552E-03  1.92814402916E-03
  1.94752219882E-03  1.96709512231E-03  1.98686475696E-03  2.00683307975E-03
  2.02700208751E-03  2.04737379717E-03  2.06795024591E-03  2.08873349141E-03
  2.10972561199E-03  2.13092870689E-03  2.15234489644E-03  2.17397632227E-03
  2.19582514755E-03  2.21789355717E-03  2.24018375799E-03  2.26269797906E-03
  2.28543847181E-03  2.30840751031E-03  2.33160739149E-03  2.35504043535E-03
  2.37870898521E-03  2.40261540796E-03  2.42676209425E-03  2.45115145877E-03
  2.47578594048E-03  2.50066800284E-03  2.52580013409E-03  2.55118484746E-03
  2.57682468144E-03  2.60272220004E-03  2.62887999302E-03  2.65530067620E-03
  2.68198689165E-03  2.70894130803E-03  2.73616662080E-03  2.76366555251E-03
  2.79144085307E-03  2.81949530005E-03  2.84783169891E-03  2.87645288331E-03
  2.90536171540E-03  2.93456108608E-03  2.96405391531E-03  2.99384315241E-03
  3.02393177631E-03  3.05432279592E-03  3.08501925034E-03  3.11602420927E-03
  3.14734077321E-03  3.17897207385E-03  3.21092127435E-03  3.24319156965E-03
  3.27578618681E-03  3.30870838532E-03  3.34196145743E-03  3.37554872846E-03
  3.40947355718E-03  3.44373933610E-03  3.47834949183E-03  3.51330748540E-03
  3.54861681264E-03  3.58428100453E-03  3.62030362750E-03  3.65668828385E-03
  3.69343861208E-03  3.73055828724E-03  3.76805102135E-03  3.80592056369E-03
  3.84417070127E-03  3.88280525912E-03  3.92182810073E-03  3.96124312841E-03
  4.00105428372E-03  4.04126554778E-03  4.08188094177E-03  4.12290452725E-03
  4.16434040662E-03  4.20619272350E-03  4.24846566316E-03  4.29116345293E-03
  4.33429036261E-03  4.37785070495E-03  4.42184883600E-03  4.46628915563E-03
  4.51117610789E-03  4.55651418152E-03  4.60230791036E-03  4.64856187384E-03
  4.69528069737E-03  4.74246905288E-03  4.79013165926E-03  4.83827328279E-03
  4.88689873768E-03  4.93601288652E-03  4.98562064075E-03  5.03572696121E-03
  5.08633685856E-03  5.13745539384E-03  5.18908767893E-03  5.24123887712E-03
  5.29391420356E-03  5.34711892584E-03  5.40085836446E-03  5.45513789342E-03
  5.50996294072E-03  5.56533898890E-03  5.62127157562E-03  5.67776629418E-03
  5.73482879410E-03  5.79246478168E-03  5.85068002057E-03  5.90948033233E-03
  5.96887159705E-03  6.02885975390E-03  6.08945080176E-03  6.15065079977E-03
  6.21246586798E-03  6.27490218796E-03  6.33796600338E-03  6.40166362069E-03
  6.46600140970E-03  6.53098580423E-03  6.59662330279E-03  6.66292046917E-03
  6.72988393316E-03  6.79752039114E-03  6.86583660683E-03  6.93483941190E-03
  7.00453570669E-03  7.07493246089E-03  7.14603671423E-03  7.21785557720E-03
  7.29039623174E-03  7.36366593198E-03  7.43767200495E-03  7.51242185131E-03
  7.58792294613E-03  7.66418283956E-03  7.74120915766E-03  7.81900960313E-03
  7.89759195607E-03  7.97696407479E-03  8.05713389657E-03  8.13810943845E-03
  8.21989879805E-03  8.30251015439E-03  8.38595176866E-03  8.47023198509E-03
  8.55535923179E-03  8.64134202153E-03  8.72818895268E-03  8.81590870999E-03
  8.90451006553E-03  8.99400187949E-03  9.08439310113E-03  9.17569276966E-03
  9.26791001511E-03  9.36105405928E-03  9.45513421666E-03  9.55015989534E-03
  9.64614059797E-03  9.74308592270E-03  9.84100556413E-03  9.93990931433E-03
  1.00398070637E-02  1.01407088022E-02  1.02426246200E-02  1.03455647088E-02
  1.04495393628E-02  1.05545589793E-02  1.06606340605E-02  1.07677752141E-02
  1.08759931541E-02  1.09852987025E-02  1.10957027899E-02  1.12072164569E-02
  1.13198508548E-02  1.14336172473E-02  1.15485270110E-02  1.16645916370E-02
  1.17818227320E-02  1.19002320190E-02  1.20198313391E-02  1.21406326524E-02
  1.22626480390E-02  1.23858897007E-02  1.25103699617E-02  1.26361012701E-02
  1.27630961992E-02  1.28913674485E-02  1.30209278453E-02  1.31517903457E-02
  1.32839680362E-02  1.34174741345E-02  1.35523219914E-02  1.36885250917E-02
  1.38260970561E-02  1.39650516416E-02  1.41054027439E-02  1.42471643983E-02
  1.43903507810E-02  1.45349762107E-02  1.46810551502E-02  1.48286022074E-02
  1.49776321372E-02  1.51281598427E-02  1.52802003768E-02  1.54337689437E-02
  1.55888809003E-02  1.57455517580E-02  1.59037971840E-02  1.60636330030E-02
  1.62250751987E-02  1.63881399154E-02  1.65528434597E-02  1.67192023022E-02
  1.68872330789E-02  1.70569525929E-02  1.72283778164E-02  1.74015258920E-02
  1.75764141348E-02  1.77530600336E-02  1.79314812532E-02  1.81116956358E-02
  1.82937212031E-02  1.84775761578E-02  1.86632788855E-02  1.88508479567E-02
  1.90403021283E-02  1.92316603460E-02  1.94249417458E-02  1.96201656559E-02
  1.98173515990E-02  2.00165192937E-02  2.02176886571E-02  2.04208798061E-02
  2.06261130602E-02  2.08334089428E-02  2.10427881836E-02  2.12542717207E-02
  2.14678807028E-02  2.16836364908E-02  2.19015606605E-02  2.21216750045E-02
  2.23440015345E-02  2.25685624833E-02  2.27953803071E-02  2.30244776879E-02
  2.32558775357E-02  2.34896029906E-02  2.37256774254E-02  2.39641244477E-02
  2.42049679025E-02  2.44482318741E-02  2.46939406894E-02  2.49421189193E-02
  2.51927913819E-02  2.54459831446E-02  2.57017195268E-02  2.59600261024E-02
  2.62209287022E-02  2.64844534168E-02  2.67506265987E-02  2.70194748657E-02
  2.72910251026E-02  2.75653044648E-02  2.78423403804E-02  2.81221605532E-02
  2.84047929655E-02  2.86902658808E-02  2.89786078466E-02  2.92698476974E-02
  2.95640145572E-02  2.98611378432E-02  3.01612472679E-02  3.04643728424E-02
  3.07705448796E-02  3.10797939969E-02  3.13921511195E-02  3.17076474834E-02
  3.20263146384E-02  3.23481844516E-02  3.26732891102E-02  3.30016611250E-02
  3.33333333333E-02  3.36683389028E-02  3.40067113342E-02  3.43484844651E-02
  3.46936924731E-02  3.50423698792E-02  3.53945515515E-02  3.57502727085E-02
  3.61095689225E-02  3.64724761235E-02  3.68390306025E-02  3.72092690153E-02
  3.75832283860E-02  3.79609461108E-02  3.83424599619E-02  3.87278080909E-02
  3.91170290331E-02  3.95101617107E-02  3.99072454374E-02  4.03083199219E-02
  4.07134252720E-02  4.11226019986E-02  4.15358910196E-02  4.19533336643E-02
  4.23749716774E-02  4.28008472229E-02  4.32310028889E-02  4.36654816911E-02
  4.41043270779E-02  4.45475829342E-02  4.49952935859E-02  4.54475038044E-02
  4.59042588112E-02  4.63656042821E-02  4.68315863521E-02  4.73022516198E-02
  4.77776471520E-02  4.82578204888E-02  4.87428196478E-02  4.92326931294E-02
  4.97274899214E-02  5.02272595038E-02  5.07320518540E-02  5.12419174516E-02
  5.17569072837E-02  5.22770728497E-02  5.28024661665E-02  5.33331397739E-02
  5.38691467398E-02  5.44105406652E-02  5.49573756900E-02  5.55097064982E-02
  5.60675883233E-02  5.66310769540E-02  5.72002287395E-02  5.77751005956E-02
  5.83557500099E-02  5.89422350478E-02  5.95346143583E-02  6.01329471799E-02
  6.07372933464E-02  6.13477132927E-02  6.19642680615E-02  6.25870193088E-02
  6.32160293102E-02  6.38513609671E-02  6.44930778134E-02  6.51412440212E-02
  6.57959244077E-02  6.64571844414E-02  6.71250902490E-02  6.77997086216E-02
  6.84811070215E-02  6.91693535891E-02  6.98645171498E-02  7.05666672204E-02
  7.12758740166E-02  7.19922084595E-02  7.27157421833E-02  7.34465475419E-02
  7.41846976164E-02  7.49302662225E-02  7.56833279177E-02  7.64439580088E-02
  7.72122325594E-02  7.79882283975E-02  7.87720231235E-02  7.95636951175E-02
  8.03633235472E-02  8.11709883763E-02  8.19867703719E-02  8.28107511128E-02
  8.36430129979E-02  8.44836392539E-02  8.53327139443E-02  8.61903219772E-02
  8.70565491141E-02  8.79314819785E-02  8.88152080643E-02  8.97078157450E-02
  9.06093942820E-02  9.15200338339E-02  9.24398254655E-02  9.33688611566E-02
  9.43072338117E-02  9.52550372688E-02  9.62123663089E-02  9.71793166659E-02
  9.81559850355E-02  9.91424690854E-02  1.00138867465E-01  1.01145279815E-01
  1.02161806776E-01  1.03188550004E-01  1.04225612173E-01  1.05273096990E-01
  1.06331109204E-01  1.07399754618E-01  1.08479140096E-01  1.09569373579E-01
  1.10670564091E-01  1.11782821752E-01  1.12906257787E-01  1.14040984543E-01
  1.15187115492E-01  1.16344765249E-01  1.17514049579E-01  1.18695085412E-01
  1.19887990852E-01  1.21092885192E-01  1.22309888921E-01  1.23539123740E-01
  1.24780712575E-01  1.26034779586E-01  1.27301450179E-01  1.28580851023E-01
  1.29873110060E-01  1.31178356516E-01  1.32496720916E-01  1.33828335100E-01
  1.35173332228E-01  1.36531846802E-01  1.37904014675E-01  1.39289973064E-01
  1.40689860567E-01  1.42103817172E-01  1.43531984278E-01  1.44974504702E-01
  1.46431522697E-01  1.47903183967E-01  1.49389635678E-01  1.50891026477E-01
  1.52407506505E-01  1.53939227410E-01  1.55486342366E-01  1.57049006086E-01
  1.58627374838E-01  1.60221606459E-01  1.61831860375E-01  1.63458297611E-01
  1.65101080813E-01  1.66760374261E-01  1.68436343885E-01  1.70129157285E-01
  1.71838983741E-01  1.73565994239E-01  1.75310361482E-01  1.77072259906E-01
  1.78851865704E-01  1.80649356838E-01  1.82464913058E-01  1.84298715921E-01
  1.86150948809E-01  1.88021796948E-01  1.89911447422E-01  1.91820089200E-01
  1.93747913147E-01  1.95695112046E-01  1.97661880620E-01  1.99648415546E-01
  2.01654915480E-01  2.03681581074E-01  2.05728614996E-01  2.07796221951E-01
  2.09884608701E-01  2.11993984087E-01  2.14124559048E-01  2.16276546643E-01
  2.18450162073E-01  2.20645622701E-01  2.22863148076E-01  2.25102959951E-01
  2.27365282310E-01  2.29650341386E-01  2.31958365688E-01  2.34289586020E-01
  2.36644235505E-01  2.39022549612E-01  2.41424766172E-01  2.43851125410E-01
  2.46301869964E-01  2.48777244911E-01  2.51277497789E-01  2.53802878626E-01
  2.56353639963E-01  2.58930036877E-01  2.61532327011E-01  2.64160770595E-01
  2.66815630477E-01  2.69497172144E-01  2.72205663752E-01  2.74941376154E-01
  2.77704582923E-01  2.80495560381E-01  2.83314587630E-01  2.86161946573E-01
  2.89037921949E-01  2.91942801358E-01  2.94876875291E-01  2.97840437157E-01
  3.00833783314E-01  3.03857213101E-01  3.06911028863E-01  3.09995535983E-01
  3.13111042915E-01  3.16257861212E-01  3.19436305559E-01  3.22646693802E-01
  3.25889346984E-01  3.29164589372E-01  3.32472748494E-01  3.35814155167E-01
  3.39189143536E-01  3.42598051101E-01  3.46041218758E-01  3.49518990824E-01
  3.53031715081E-01  3.56579742804E-01  3.60163428798E-01  3.63783131435E-01
  3.67439212688E-01  3.71132038169E-01  3.74861977163E-01  3.78629402667E-01
  3.82434691426E-01  3.86278223974E-01  3.90160384666E-01  3.94081561722E-01
  3.98042147262E-01  4.02042537348E-01  4.06083132023E-01  4.10164335350E-01
  4.14286555453E-01  4.18450204556E-01  4.22655699028E-01  4.26903459422E-01
  4.31193910518E-01  4.35527481364E-01  4.39904605322E-01  4.44325720107E-01
  4.48791267833E-01  4.53301695061E-01  4.57857452836E-01  4.62458996738E-01
  4.67106786924E-01  4.71801288179E-01  4.76542969956E-01  4.81332306427E-01
  4.86169776529E-01  4.91055864015E-01  4.95991057496E-01  5.00975850496E-01
  5.06010741498E-01  5.11096233997E-01  5.16232836545E-01  5.21421062806E-01
  5.26661431609E-01  5.31954466993E-01  5.37300698268E-01  5.42700660060E-01
  5.48154892370E-01  5.53663940626E-01  5.59228355738E-01  5.64848694151E-01
  5.70525517905E-01  5.76259394686E-01  5.82050897886E-01  5.87900606661E-01
  5.93809105987E-01  5.99776986718E-01  6.05804845648E-01  6.11893285567E-01
  6.18042915325E-01  6.24254349889E-01  6.30528210409E-01  6.36865124274E-01
  6.43265725183E-01  6.49730653201E-01  6.56260554825E-01  6.62856083052E-01
  6.69517897440E-01  6.76246664175E-01  6.83043056140E-01  6.89907752980E-01
  6.96841441170E-01  7.03844814085E-01  7.10918572068E-01  7.18063422500E-01
  7.25280079873E-01  7.32569265859E-01  7.39931709381E-01  7.47368146692E-01
  7.54879321439E-01  7.62465984748E-01  7.70128895291E-01  7.77868819365E-01
  7.85686530969E-01  7.93582811881E-01  8.01558451735E-01  8.09614248103E-01
  8.17751006570E-01  8.25969540820E-01  8.34270672711E-01  8.42655232365E-01
  8.51124058245E-01  8.59677997240E-01  8.68317904751E-01  8.77044644776E-01
  8.85859089996E-01  8.94762121863E-01  9.03754630689E-01  9.12837515730E-01
  9.22011685284E-01  9.31278056775E-01  9.40637556847E-01  9.50091121459E-01
  9.59639695975E-01  9.69284235260E-01  9.79025703776E-01  9.88865075679E-01
  9.98803334913E-01  1.00884147531E+00  1.01898050070E+00  1.02922142499E+00
  1.03956527228E+00  1.05001307696E+00  1.06056588382E+00  1.07122474816E+00
  1.08199073586E+00  1.09286492354E+00  1.10384839862E+00  1.11494225946E+00
  1.12614761546E+00  1.13746558716E+00  1.14889730636E+00  1.16044391625E+00
  1.17210657150E+00  1.18388643839E+00  1.19578469490E+00  1.20780253088E+00
  1.21994114812E+00  1.23220176049E+00  1.24458559407E+00  1.25709388724E+00
  1.26972789085E+00  1.28248886830E+00  1.29537809571E+00  1.30839686201E+00
  1.32154646909E+00  1.33482823191E+00  1.34824347867E+00  1.36179355090E+00
  1.37547980362E+00  1.38930360547E+00  1.40326633883E+00  1.41736940000E+00
  1.43161419929E+00  1.44600216120E+00  1.46053472452E+00  1.47521334253E+00
  1.49003948311E+00  1.50501462888E+00  1.52014027736E+00  1.53541794114E+00
  1.55084914799E+00  1.56643544105E+00  1.58217837896E+00  1.59807953603E+00
  1.61414050238E+00  1.63036288412E+00  1.64674830352E+00  1.66329839911E+00
  1.68001482594E+00  1.69689925564E+00  1.71395337668E+00  1.73117889449E+00
  1.74857753164E+00  1.76615102799E+00  1.78390114092E+00  1.80182964544E+00
  1.81993833444E+00  1.83822901878E+00  1.85670352756E+00  1.87536370824E+00
  1.89421142685E+00  1.91324856818E+00  1.93247703597E+00  1.95189875306E+00
  1.97151566166E+00  1.99132972347E+00  2.01134291991E+00  2.03155725232E+00
  2.05197474215E+00  2.07259743116E+00  2.09342738164E+00  2.11446667660E+00
  2.13571742000E+00  2.15718173691E+00  2.17886177380E+00  2.20075969868E+00
  2.22287770136E+00  2.24521799367E+00  2.26778280965E+00  2.29057440579E+00
  2.31359506129E+00  2.33684707822E+00  2.36033278181E+00  2.38405452064E+00
  2.40801466691E+00  2.43221561665E+00  2.45665978999E+00  2.48134963134E+00
  2.50628760973E+00  2.53147621897E+00  2.55691797794E+00  2.58261543084E+00
  2.60857114744E+00  2.63478772332E+00  2.66126778017E+00  2.68801396602E+00
  2.71502895550E+00  2.74231545014E+00  2.76987617861E+00  2.79771389701E+00
  2.82583138913E+00  2.85423146674E+00  2.88291696988E+00  2.91189076711E+00
  2.94115575586E+00  2.97071486262E+00  3.00057104335E+00  3.03072728368E+00
  3.06118659927E+00  3.09195203607E+00  3.12302667065E+00  3.15441361050E+00
  3.18611599434E+00  3.21813699243E+00  3.25047980690E+00  3.28314767206E+00
  3.31614385473E+00  3.34947165455E+00  3.38313440432E+00  3.41713547035E+00
  3.45147825278E+00  3.48616618590E+00  3.52120273856E+00  3.55659141442E+00
  3.59233575238E+00  3.62843932691E+00  3.66490574840E+00  3.70173866352E+00
  3.73894175559E+00  3.77651874496E+00  3.81447338934E+00  3.85280948424E+00
  3.89153086330E+00  3.93064139869E+00  3.97014500149E+00  4.01004562211E+00
  4.05034725062E+00  4.09105391724E+00  4.13216969266E+00  4.17369868849E+00
  4.21564505767E+00  4.25801299487E+00  4.30080673691E+00  4.34403056322E+00
  4.38768879619E+00  4.43178580171E+00  4.47632598950E+00  4.52131381362E+00
  4.56675377288E+00  4.61265041133E+00  4.65900831867E+00  4.70583213072E+00
  4.75312652990E+00  4.80089624570E+00  4.84914605512E+00  4.89788078319E+00
  4.94710530342E+00  4.99682453830E+00  5.04704345980E+00  5.09776708985E+00
  5.14900050086E+00  5.20074881621E+00  5.25301721078E+00  5.30581091144E+00
  5.35913519762E+00  5.41299540178E+00  5.46739691000E+00  5.52234516246E+00
  5.57784565404E+00  5.63390393483E+00  5.69052561071E+00  5.74771634390E+00
  5.80548185350E+00  5.86382791614E+00  5.92276036645E+00  5.98228509773E+00
  6.04240806251E+00  6.10313527312E+00  6.16447280236E+00  6.22642678401E+00
  6.28900341352E+00  6.35220894862E+00  6.41604970991E+00  6.48053208151E+00
  6.54566251173E+00  6.61144751365E+00  6.67789366583E+00  6.74500761294E+00
  6.81279606643E+00  6.88126580521E+00  6.95042367630E+00  7.02027659556E+00
  7.09083154832E+00  7.16209559014E+00  7.23407584750E+00  7.30677951847E+00
  7.38021387347E+00  7.45438625602E+00  7.52930408340E+00  7.60497484747E+00
  7.68140611535E+00  7.75860553026E+00  7.83658081217E+00  7.91533975871E+00
  7.99489024581E+00  8.07524022860E+00  8.15639774214E+00  8.23837090225E+00
  8.32116790632E+00  8.40479703412E+00  8.48926664862E+00  8.57458519686E+00
  8.66076121077E+00  8.74780330801E+00  8.83572019287E+00  8.92452065712E+00
  9.01421358087E+00  9.10480793349E+00  9.19631277449E+00  9.28873725443E+00
  9.38209061584E+00  9.47638219413E+00  9.57162141854E+00  9.66781781306E+00
  9.76498099742E+00  9.86312068802E+00  9.96224669890E+00  1.00623689428E+01
  1.01634974319E+01  1.02656422792E+01  1.03688136994E+01  1.04730220095E+01
  1.05782776306E+01  1.06845910882E+01  1.07919730139E+01  1.09004341459E+01
  1.10099853303E+01  1.11206375225E+01  1.12324017877E+01  1.13452893024E+01
  1.14593113555E+01  1.15744793493E+01  1.16908048007E+01  1.18082993423E+01
  1.19269747236E+01  1.20468428124E+01  1.21679155955E+01  1.22902051803E+01
  1.24137237959E+01  1.25384837942E+01  1.26644976513E+01  1.27917779687E+01
  1.29203374746E+01  1.30501890250E+01  1.31813456052E+01  1.33138203309E+01
  1.34476264498E+01  1.35827773425E+01  1.37192865242E+01  1.38571676461E+01
  1.39964344962E+01  1.41371010015E+01  1.42791812286E+01  1.44226893858E+01
  1.45676398239E+01  1.47140470382E+01  1.48619256694E+01  1.50112905056E+01
  1.51621564833E+01  1.53145386893E+01  1.54684523620E+01  1.56239128927E+01
  1.57809358278E+01  1.59395368696E+01  1.60997318784E+01  1.62615368738E+01
  1.64249680364E+01  1.65900417096E+01  1.67567744007E+01  1.69251827832E+01
  1.70952836981E+01  1.72670941556E+01  1.74406313369E+01  1.76159125959E+01
  1.77929554609E+01  1.79717776362E+01  1.81523970042E+01  1.83348316271E+01
  1.85190997484E+01  1.87052197951E+01  1.88932103794E+01  1.90830903005E+01
  1.92748785465E+01  1.94685942964E+01  1.96642569219E+01  1.98618859896E+01
  2.00615012624E+01  2.02631227020E+01  2.04667704709E+01  2.06724649338E+01
  2.08802266604E+01  2.10900764271E+01  2.13020352190E+01  2.15161242322E+01
  2.17323648757E+01  2.19507787738E+01  2.21713877681E+01  2.23942139197E+01
  2.26192795113E+01  2.28466070497E+01  2.30762192679E+01  2.33081391272E+01
  2.35423898198E+01  2.37789947711E+01  2.40179776416E+01  2.42593623300E+01
  2.45031729747E+01  2.47494339572E+01  2.49981699037E+01  2.52494056881E+01
  2.55031664340E+01  2.57594775178E+01  2.60183645709E+01  2.62798534821E+01
  2.65439704005E+01  2.68107417381E+01  2.70801941723E+01  2.73523546484E+01
  2.76272503827E+01  2.79049088651E+01  2.81853578617E+01  2.84686254175E+01
  2.87547398596E+01  2.90437297997E+01  2.93356241369E+01  2.96304520610E+01