
     Program PWSCF v.7.2 starts on 31Jul2024 at 13:42: 5 

     This program is part of the open-source Quantum ESPRESSO suite
     for quantum simulation of materials; please cite
         "P. Giannozzi et al., J. Phys.:Condens. Matter 21 395502 (2009);
         "P. Giannozzi et al., J. Phys.:Condens. Matter 29 465901 (2017);
         "P. Giannozzi et al., J. Chem. Phys. 152 154105 (2020);
          URL http://www.quantum-espresso.org", 
     in publications or presentations arising from this work. More details at
     http://www.quantum-espresso.org/quote

     Parallel version (MPI), running on     6 processors

     MPI processes distributed on     1 nodes
     10793 MiB available memory on the printing compute node when the environment starts

     Waiting for input...
     Reading input from standard input

     Current dimensions of program PWSCF are:
     Max number of different atomic species (ntypx) = 10
     Max number of k-points (npk) =  40000
     Max angular momentum in pseudopotentials (lmaxx) =  4
     WARNING: atomic wfc #  2 for atom typeSi has zero norm
     Message from routine setup:
     the system is metallic, specify occupations

     R & G space division:  proc/nbgrp/npool/nimage =       6
     Subspace diagonalization in iterative solution of the eigenvalue problem:
     a serial algorithm will be used


     Parallelization info
     --------------------
     sticks:   dense  smooth     PW     G-vecs:    dense   smooth      PW
     Min        2123    2123    529               180125   180125   22507
     Max        2125    2125    531               180126   180126   22508
     Sum       12745   12745   3181              1080751  1080751  135043

     Using Slab Decomposition



     bravais-lattice index     =            1
     lattice parameter (alat)  =      20.0000  a.u.
     unit-cell volume          =    8000.0000 (a.u.)^3
     number of atoms/cell      =            2
     number of atomic types    =            2
     number of electrons       =        11.00 (up:   6.00, down:   5.00)
     number of Kohn-Sham states=            7
     kinetic-energy cutoff     =     100.0000  Ry
     charge density cutoff     =     400.0000  Ry
     scf convergence threshold =      1.0E-08
     mixing beta               =       0.7000
     number of iterations used =            8  plain     mixing
     Exchange-correlation=  SLA  PW   PBX  PBC
                           (   1   4   3   4   0   0   0)

     celldm(1)=  20.000000  celldm(2)=   0.000000  celldm(3)=   0.000000
     celldm(4)=   0.000000  celldm(5)=   0.000000  celldm(6)=   0.000000

     crystal axes: (cart. coord. in units of alat)
               a(1) = (   1.000000   0.000000   0.000000 )  
               a(2) = (   0.000000   1.000000   0.000000 )  
               a(3) = (   0.000000   0.000000   1.000000 )  

     reciprocal axes: (cart. coord. in units 2 pi/alat)
               b(1) = (  1.000000  0.000000  0.000000 )  
               b(2) = (  0.000000  1.000000  0.000000 )  
               b(3) = (  0.000000  0.000000  1.000000 )  


     PseudoPot. # 1 for F  read from file:
     ../pseudo/F.pbe-tm-new-gipaw.UPF
     MD5 check sum: ce5ef009770ae7616321e2944b9cf54d
     Pseudo is Norm-conserving, Zval =  7.0
     Generated by new atomic code, or converted to UPF format
     Using radial grid of 1481 points,  1 beta functions with: 
                l(1) =   0

     PseudoPot. # 2 for Si read from file:
     ../pseudo/Si_pbe-20080909.UPF
     MD5 check sum: 883d8f22650b293d946e7535fe6fa466
     Pseudo is Norm-conserving, Zval =  4.0
     Generated by new atomic code, or converted to UPF format
     Using radial grid of 1141 points,  2 beta functions with: 
                l(1) =   0
                l(2) =   1

     atomic species   valence    mass     pseudopotential
        F              7.00     9.00000     F ( 1.00)
        Si             4.00    28.00000     Si( 1.00)

     Starting magnetic structure 
     atomic species   magnetization
        F            0.000
        Si           0.000

      8 Sym. Ops. (no inversion) found


                                    s                        frac. trans.

      isym =  1     identity                                     

 cryst.   s( 1) = (     1          0          0      )
                  (     0          1          0      )
                  (     0          0          1      )

 cart.    s( 1) = (  1.0000000  0.0000000  0.0000000 )
                  (  0.0000000  1.0000000  0.0000000 )
                  (  0.0000000  0.0000000  1.0000000 )


      isym =  2     180 deg rotation - cart. axis [0,0,1]        

 cryst.   s( 2) = (    -1          0          0      )
                  (     0         -1          0      )
                  (     0          0          1      )

 cart.    s( 2) = ( -1.0000000  0.0000000  0.0000000 )
                  (  0.0000000 -1.0000000  0.0000000 )
                  (  0.0000000  0.0000000  1.0000000 )


      isym =  3      90 deg rotation - cart. axis [0,0,-1]       

 cryst.   s( 3) = (     0         -1          0      )
                  (     1          0          0      )
                  (     0          0          1      )

 cart.    s( 3) = (  0.0000000  1.0000000  0.0000000 )
                  ( -1.0000000  0.0000000  0.0000000 )
                  (  0.0000000  0.0000000  1.0000000 )


      isym =  4      90 deg rotation - cart. axis [0,0,1]        

 cryst.   s( 4) = (     0          1          0      )
                  (    -1          0          0      )
                  (     0          0          1      )

 cart.    s( 4) = (  0.0000000 -1.0000000  0.0000000 )
                  (  1.0000000  0.0000000  0.0000000 )
                  (  0.0000000  0.0000000  1.0000000 )


      isym =  5     inv. 180 deg rotation - cart. axis [0,1,0]   

 cryst.   s( 5) = (     1          0          0      )
                  (     0         -1          0      )
                  (     0          0          1      )

 cart.    s( 5) = (  1.0000000  0.0000000  0.0000000 )
                  (  0.0000000 -1.0000000  0.0000000 )
                  (  0.0000000  0.0000000  1.0000000 )


      isym =  6     inv. 180 deg rotation - cart. axis [1,0,0]   

 cryst.   s( 6) = (    -1          0          0      )
                  (     0          1          0      )
                  (     0          0          1      )

 cart.    s( 6) = ( -1.0000000  0.0000000  0.0000000 )
                  (  0.0000000  1.0000000  0.0000000 )
                  (  0.0000000  0.0000000  1.0000000 )


      isym =  7     inv. 180 deg rotation - cart. axis [1,1,0]   

 cryst.   s( 7) = (     0         -1          0      )
                  (    -1          0          0      )
                  (     0          0          1      )

 cart.    s( 7) = (  0.0000000 -1.0000000  0.0000000 )
                  ( -1.0000000  0.0000000  0.0000000 )
                  (  0.0000000  0.0000000  1.0000000 )


      isym =  8     inv. 180 deg rotation - cart. axis [1,-1,0]  

 cryst.   s( 8) = (     0          1          0      )
                  (     1          0          0      )
                  (     0          0          1      )

 cart.    s( 8) = (  0.0000000  1.0000000  0.0000000 )
                  (  1.0000000  0.0000000  0.0000000 )
                  (  0.0000000  0.0000000  1.0000000 )


     point group C_4v (4mm) 
     there are  5 classes
     the character table:

       E     2C4   C2    2s_v  2s_d 
A_1    1.00  1.00  1.00  1.00  1.00
A_2    1.00  1.00  1.00 -1.00 -1.00
B_1    1.00 -1.00  1.00  1.00 -1.00
B_2    1.00 -1.00  1.00 -1.00  1.00
E      2.00  0.00 -2.00  0.00  0.00

     the symmetry operations in each class and the name of the first element:

     E        1
          identity                                               
     2C4      3    4
           90 deg rotation - cart. axis [0,0,-1]                 
     C2       2
          180 deg rotation - cart. axis [0,0,1]                  
     2s_v     5    6
          inv. 180 deg rotation - cart. axis [0,1,0]             
     2s_d     7    8
          inv. 180 deg rotation - cart. axis [1,1,0]             

   Cartesian axes

     site n.     atom                  positions (alat units)
         1           Si  tau(   1) = (   0.0000000   0.0000000   0.0000000  )
         2           F   tau(   2) = (   0.0000000   0.0000000   0.1542205  )

   Crystallographic axes

     site n.     atom                  positions (cryst. coord.)
         1           Si  tau(   1) = (  0.0000000  0.0000000  0.0000000  )
         2           F   tau(   2) = (  0.0000000  0.0000000  0.1542205  )

     number of k points=     1
                       cart. coord. in units 2pi/alat
        k(    1) = (   0.0000000   0.0000000   0.0000000), wk =   1.0000000

                       cryst. coord.
        k(    1) = (   0.0000000   0.0000000   0.0000000), wk =   1.0000000

     Dense  grid:  1080751 G-vectors     FFT dimensions: ( 128, 128, 128)

     Dynamical RAM for                 wfc:       2.40 MB

     Dynamical RAM for     wfc (w. buffer):       7.21 MB

     Dynamical RAM for           str. fact:       5.50 MB

     Dynamical RAM for           local pot:       0.00 MB

     Dynamical RAM for          nlocal pot:       1.72 MB

     Dynamical RAM for                qrad:       0.28 MB

     Dynamical RAM for          rho,v,vnew:      32.99 MB

     Dynamical RAM for               rhoin:      11.00 MB

     Dynamical RAM for            rho*nmix:      87.95 MB

     Dynamical RAM for           G-vectors:      11.68 MB

     Dynamical RAM for          h,s,v(r/c):       0.01 MB

     Dynamical RAM for          <psi|beta>:       0.00 MB

     Dynamical RAM for                 psi:       4.81 MB

     Dynamical RAM for                hpsi:       4.81 MB

     Dynamical RAM for      wfcinit/wfcrot:      10.31 MB

     Estimated static dynamical RAM per process >      95.12 MB

     Estimated max dynamical RAM per process >     193.38 MB

     Estimated total dynamical RAM >       1.13 GB
     Generating pointlists ...
     new r_m :   0.0636 (alat units)  1.2723 (a.u.) for type    1
     new r_m :   0.0636 (alat units)  1.2723 (a.u.) for type    2

     Initial potential from superposition of free atoms

     starting charge      10.9994, renormalised to      11.0000

     negative rho (up, down):  1.654E-04 1.654E-04
     Starting wfcs are   15 randomized atomic wfcs

     total cpu time spent up to now is        2.6 secs

     Self-consistent Calculation

     iteration #  1     ecut=   100.00 Ry     beta= 0.70
     Davidson diagonalization with overlap

---- Real-time Memory Report at c_bands before calling an iterative solver
           172 MiB given to the printing process from OS
             0 MiB allocation reported by mallinfo(arena+hblkhd)
         10195 MiB available memory on the node where the printing process lives
------------------
     ethr =  1.00E-04,  avg # of iterations =  4.0

     negative rho (up, down):  2.570E-05 4.732E-05

     total cpu time spent up to now is        5.9 secs

     total energy              =     -55.90250007 Ry
     estimated scf accuracy    <       0.18046185 Ry

     total magnetization       =     1.00 Bohr mag/cell
     absolute magnetization    =     1.00 Bohr mag/cell

     iteration #  2     ecut=   100.00 Ry     beta= 0.70
     Davidson diagonalization with overlap

---- Real-time Memory Report at c_bands before calling an iterative solver
           237 MiB given to the printing process from OS
             0 MiB allocation reported by mallinfo(arena+hblkhd)
          9538 MiB available memory on the node where the printing process lives
------------------
     ethr =  1.64E-03,  avg # of iterations =  2.0

     negative rho (up, down):  1.395E-05 3.132E-05

     total cpu time spent up to now is        8.3 secs

     total energy              =     -55.92250993 Ry
     estimated scf accuracy    <       0.30938020 Ry

     total magnetization       =     1.00 Bohr mag/cell
     absolute magnetization    =     1.01 Bohr mag/cell

     iteration #  3     ecut=   100.00 Ry     beta= 0.70
     Davidson diagonalization with overlap

---- Real-time Memory Report at c_bands before calling an iterative solver
           248 MiB given to the printing process from OS
             0 MiB allocation reported by mallinfo(arena+hblkhd)
          9472 MiB available memory on the node where the printing process lives
------------------
     ethr =  1.64E-03,  avg # of iterations =  2.0

     negative rho (up, down):  1.156E-07 9.301E-07

     total cpu time spent up to now is       10.7 secs

     total energy              =     -55.99014061 Ry
     estimated scf accuracy    <       0.00280246 Ry

     total magnetization       =     1.00 Bohr mag/cell
     absolute magnetization    =     1.01 Bohr mag/cell

     iteration #  4     ecut=   100.00 Ry     beta= 0.70
     Davidson diagonalization with overlap

---- Real-time Memory Report at c_bands before calling an iterative solver
           259 MiB given to the printing process from OS
             0 MiB allocation reported by mallinfo(arena+hblkhd)
          9396 MiB available memory on the node where the printing process lives
------------------
     ethr =  2.55E-05,  avg # of iterations =  2.0

     negative rho (up, down):  3.029E-09 6.299E-08

     total cpu time spent up to now is       13.0 secs

     total energy              =     -55.99074223 Ry
     estimated scf accuracy    <       0.00005527 Ry

     total magnetization       =     1.00 Bohr mag/cell
     absolute magnetization    =     1.02 Bohr mag/cell

     iteration #  5     ecut=   100.00 Ry     beta= 0.70
     Davidson diagonalization with overlap

---- Real-time Memory Report at c_bands before calling an iterative solver
           270 MiB given to the printing process from OS
             0 MiB allocation reported by mallinfo(arena+hblkhd)
          9335 MiB available memory on the node where the printing process lives
------------------
     ethr =  5.02E-07,  avg # of iterations =  2.5

     negative rho (up, down):  5.489E-10 1.605E-08

     total cpu time spent up to now is       15.5 secs

     total energy              =     -55.99079286 Ry
     estimated scf accuracy    <       0.00000490 Ry

     total magnetization       =     1.00 Bohr mag/cell
     absolute magnetization    =     1.03 Bohr mag/cell

     iteration #  6     ecut=   100.00 Ry     beta= 0.70
     Davidson diagonalization with overlap

---- Real-time Memory Report at c_bands before calling an iterative solver
           281 MiB given to the printing process from OS
             0 MiB allocation reported by mallinfo(arena+hblkhd)
          9265 MiB available memory on the node where the printing process lives
------------------
     ethr =  4.46E-08,  avg # of iterations =  3.5

     total cpu time spent up to now is       18.1 secs

     total energy              =     -55.99081101 Ry
     estimated scf accuracy    <       0.00000092 Ry

     total magnetization       =     1.00 Bohr mag/cell
     absolute magnetization    =     1.03 Bohr mag/cell

     iteration #  7     ecut=   100.00 Ry     beta= 0.70
     Davidson diagonalization with overlap

---- Real-time Memory Report at c_bands before calling an iterative solver
           292 MiB given to the printing process from OS
             0 MiB allocation reported by mallinfo(arena+hblkhd)
          9201 MiB available memory on the node where the printing process lives
------------------
     ethr =  8.34E-09,  avg # of iterations =  4.0

     total cpu time spent up to now is       20.8 secs

     total energy              =     -55.99081416 Ry
     estimated scf accuracy    <       0.00000018 Ry

     total magnetization       =     1.00 Bohr mag/cell
     absolute magnetization    =     1.03 Bohr mag/cell

     iteration #  8     ecut=   100.00 Ry     beta= 0.70
     Davidson diagonalization with overlap

---- Real-time Memory Report at c_bands before calling an iterative solver
           303 MiB given to the printing process from OS
             0 MiB allocation reported by mallinfo(arena+hblkhd)
          9144 MiB available memory on the node where the printing process lives
------------------
     ethr =  1.66E-09,  avg # of iterations =  4.0

     total cpu time spent up to now is       23.6 secs

     total energy              =     -55.99081569 Ry
     estimated scf accuracy    <       0.00000003 Ry

     total magnetization       =     1.00 Bohr mag/cell
     absolute magnetization    =     1.03 Bohr mag/cell

     iteration #  9     ecut=   100.00 Ry     beta= 0.70
     Davidson diagonalization with overlap

---- Real-time Memory Report at c_bands before calling an iterative solver
           314 MiB given to the printing process from OS
             0 MiB allocation reported by mallinfo(arena+hblkhd)
          9081 MiB available memory on the node where the printing process lives
------------------
     ethr =  3.07E-10,  avg # of iterations =  2.5

     Magnetic moment per site  (integrated on atomic sphere of radius R)
     atom   1 (R=0.064)  charge=  0.5238  magn=  0.0850
     atom   2 (R=0.064)  charge=  5.6563  magn=  0.0441

     total cpu time spent up to now is       25.8 secs

     End of self-consistent calculation

 ------ SPIN UP ------------


          k = 0.0000 0.0000 0.0000 (135043 PWs)   bands (ev):

   -29.6127 -12.9824 -10.4975 -10.4975  -8.7673  -3.7260  -3.7260

     occupation numbers 
     1.0000   1.0000   1.0000   1.0000   1.0000   1.0000   0.0000

 ------ SPIN DOWN ----------


          k = 0.0000 0.0000 0.0000 (135043 PWs)   bands (ev):

   -29.5272 -12.7189 -10.3441 -10.3441  -8.0773  -2.6042  -2.6042

     occupation numbers 
     1.0000   1.0000   1.0000   1.0000   1.0000   0.0000   0.0000

     highest occupied, lowest unoccupied level (ev):    -3.7260   -3.7260

!    total energy              =     -55.99081570 Ry
     estimated scf accuracy    <          5.6E-10 Ry

     The total energy is the sum of the following terms:
     one-electron contribution =     -95.38912503 Ry
     hartree contribution      =      49.71687360 Ry
     xc contribution           =     -11.45315527 Ry
     ewald contribution        =       1.13459101 Ry

     total magnetization       =     1.00 Bohr mag/cell
     absolute magnetization    =     1.03 Bohr mag/cell

     convergence has been achieved in   9 iterations

     Writing all to output data dir ./scratch/SiF.save/

     init_run     :      2.26s CPU      2.48s WALL (       1 calls)
     electrons    :     22.39s CPU     23.33s WALL (       1 calls)

     Called by init_run:
     wfcinit      :      0.82s CPU      0.85s WALL (       1 calls)
     wfcinit:atom :      0.01s CPU      0.01s WALL (       2 calls)
     wfcinit:wfcr :      0.77s CPU      0.80s WALL (       2 calls)
     potinit      :      0.86s CPU      1.00s WALL (       1 calls)
     hinit0       :      0.14s CPU      0.16s WALL (       1 calls)

     Called by electrons:
     c_bands      :     10.40s CPU     10.72s WALL (       9 calls)
     sum_band     :      3.11s CPU      3.31s WALL (       9 calls)
     v_of_rho     :      7.53s CPU      7.87s WALL (      10 calls)
     v_h          :      0.45s CPU      0.49s WALL (      10 calls)
     v_xc         :      7.08s CPU      7.38s WALL (      10 calls)
     mix_rho      :      1.79s CPU      1.91s WALL (       9 calls)

     Called by c_bands:
     init_us_2    :      0.08s CPU      0.08s WALL (      38 calls)
     init_us_2:cp :      0.08s CPU      0.08s WALL (      38 calls)
     cegterg      :     10.29s CPU     10.60s WALL (      18 calls)

     Called by sum_band:
     sum_band:wei :      0.00s CPU      0.00s WALL (       9 calls)
     sum_band:loo :      1.78s CPU      1.83s WALL (       9 calls)
     sum_band:buf :      0.02s CPU      0.02s WALL (      18 calls)
     sum_band:ini :      0.04s CPU      0.04s WALL (      18 calls)

     Called by *egterg:
     cdiaghg      :      0.01s CPU      0.01s WALL (      71 calls)
     cegterg:over :      0.31s CPU      0.31s WALL (      53 calls)
     cegterg:upda :      0.19s CPU      0.19s WALL (      53 calls)
     cegterg:last :      0.29s CPU      0.29s WALL (      43 calls)
     h_psi        :     10.06s CPU     10.40s WALL (      73 calls)
     g_psi        :      0.02s CPU      0.02s WALL (      53 calls)

     Called by h_psi:
     h_psi:calbec :      0.14s CPU      0.15s WALL (      73 calls)
     vloc_psi     :      9.74s CPU     10.07s WALL (      73 calls)
     add_vuspsi   :      0.09s CPU      0.09s WALL (      73 calls)

     General routines
     calbec       :      0.14s CPU      0.15s WALL (      73 calls)
     fft          :      5.38s CPU      5.68s WALL (     187 calls)
     ffts         :      0.44s CPU      0.48s WALL (      18 calls)
     fftw         :      9.37s CPU      9.66s WALL (     954 calls)

     Parallel routines

     PWSCF        :     24.84s CPU     26.18s WALL


   This run was terminated on:  13:42:31  31Jul2024            

=------------------------------------------------------------------------------=
   JOB DONE.
=------------------------------------------------------------------------------=
