
     Program PWSCF v.7.2 starts on 25Sep2024 at 11:15:29 

     This program is part of the open-source Quantum ESPRESSO suite
     for quantum simulation of materials; please cite
         "P. Giannozzi et al., J. Phys.:Condens. Matter 21 395502 (2009);
         "P. Giannozzi et al., J. Phys.:Condens. Matter 29 465901 (2017);
         "P. Giannozzi et al., J. Chem. Phys. 152 154105 (2020);
          URL http://www.quantum-espresso.org", 
     in publications or presentations arising from this work. More details at
     http://www.quantum-espresso.org/quote

     Parallel version (MPI), running on     6 processors

     MPI processes distributed on     1 nodes
     5100 MiB available memory on the printing compute node when the environment starts

     Waiting for input...
     Reading input from standard input

     Current dimensions of program PWSCF are:
     Max number of different atomic species (ntypx) = 10
     Max number of k-points (npk) =  40000
     Max angular momentum in pseudopotentials (lmaxx) =  4
     Message from routine setup:
     the system is metallic, specify occupations

     R & G space division:  proc/nbgrp/npool/nimage =       6
     Subspace diagonalization in iterative solution of the eigenvalue problem:
     a serial algorithm will be used


     Parallelization info
     --------------------
     sticks:   dense  smooth     PW     G-vecs:    dense   smooth      PW
     Min        2123    2123    529               180125   180125   22507
     Max        2125    2125    531               180126   180126   22508
     Sum       12745   12745   3181              1080751  1080751  135043

     Using Slab Decomposition



     bravais-lattice index     =            1
     lattice parameter (alat)  =      20.0000  a.u.
     unit-cell volume          =    8000.0000 (a.u.)^3
     number of atoms/cell      =            3
     number of atomic types    =            2
     number of electrons       =        17.00 (up:   9.00, down:   8.00)
     number of Kohn-Sham states=            9
     kinetic-energy cutoff     =     100.0000  Ry
     charge density cutoff     =     400.0000  Ry
     scf convergence threshold =      1.0E-08
     mixing beta               =       0.7000
     number of iterations used =            8  plain     mixing
     Exchange-correlation=  SLA  PW   PBX  PBC
                           (   1   4   3   4   0   0   0)

     celldm(1)=  20.000000  celldm(2)=   0.000000  celldm(3)=   0.000000
     celldm(4)=   0.000000  celldm(5)=   0.000000  celldm(6)=   0.000000

     crystal axes: (cart. coord. in units of alat)
               a(1) = (   1.000000   0.000000   0.000000 )  
               a(2) = (   0.000000   1.000000   0.000000 )  
               a(3) = (   0.000000   0.000000   1.000000 )  

     reciprocal axes: (cart. coord. in units 2 pi/alat)
               b(1) = (  1.000000  0.000000  0.000000 )  
               b(2) = (  0.000000  1.000000  0.000000 )  
               b(3) = (  0.000000  0.000000  1.000000 )  


     PseudoPot. # 1 for O  read from file:
     ../pseudo/O.pbe-tm-new-gipaw-dc.UPF
     MD5 check sum: cd70c9dcf1f7d755502eb127a1501eea
     Pseudo is Norm-conserving, Zval =  6.0
     Generated by new atomic code, or converted to UPF format
     Using radial grid of 1469 points,  1 beta functions with: 
                l(1) =   0

     PseudoPot. # 2 for N  read from file:
     ../pseudo/N.pbe-tm-new-gipaw.UPF
     MD5 check sum: 9e1e244b5be3554aada01acffa4176ee
     Pseudo is Norm-conserving, Zval =  5.0
     Generated by new atomic code, or converted to UPF format
     Using radial grid of 1457 points,  1 beta functions with: 
                l(1) =   0

     atomic species   valence    mass     pseudopotential
        O              6.00    16.00000     O ( 1.00)
        N              5.00    14.00000     N ( 1.00)

     Starting magnetic structure 
     atomic species   magnetization
        O            0.000
        N            0.000

     No symmetry found


                                    s                        frac. trans.

      isym =  1     identity                                     

 cryst.   s( 1) = (     1          0          0      )
                  (     0          1          0      )
                  (     0          0          1      )

 cart.    s( 1) = (  1.0000000  0.0000000  0.0000000 )
                  (  0.0000000  1.0000000  0.0000000 )
                  (  0.0000000  0.0000000  1.0000000 )


     point group C_1 (1)    
     there are  1 classes
     the character table:

       E    
A      1.00

     the symmetry operations in each class and the name of the first element:

     E        1
          identity                                               

   Cartesian axes

     site n.     atom                  positions (alat units)
         1           N   tau(   1) = (   0.0000000   0.0000010  -0.0013636  )
         2           O   tau(   2) = (  -0.0000000   0.1061420   0.0446457  )
         3           O   tau(   3) = (  -0.0000000  -0.1061430   0.0446468  )

   Crystallographic axes

     site n.     atom                  positions (cryst. coord.)
         1           N   tau(   1) = (  0.0000000  0.0000010 -0.0013636  )
         2           O   tau(   2) = ( -0.0000000  0.1061420  0.0446457  )
         3           O   tau(   3) = ( -0.0000000 -0.1061430  0.0446468  )

     number of k points=     1
                       cart. coord. in units 2pi/alat
        k(    1) = (   0.0000000   0.0000000   0.0000000), wk =   1.0000000

                       cryst. coord.
        k(    1) = (   0.0000000   0.0000000   0.0000000), wk =   1.0000000

     Dense  grid:  1080751 G-vectors     FFT dimensions: ( 128, 128, 128)

     Dynamical RAM for                 wfc:       3.09 MB

     Dynamical RAM for     wfc (w. buffer):       9.28 MB

     Dynamical RAM for           str. fact:       5.50 MB

     Dynamical RAM for           local pot:       0.00 MB

     Dynamical RAM for          nlocal pot:       1.03 MB

     Dynamical RAM for                qrad:       0.03 MB

     Dynamical RAM for          rho,v,vnew:      32.99 MB

     Dynamical RAM for               rhoin:      11.00 MB

     Dynamical RAM for            rho*nmix:      87.95 MB

     Dynamical RAM for           G-vectors:      11.68 MB

     Dynamical RAM for          h,s,v(r/c):       0.01 MB

     Dynamical RAM for          <psi|beta>:       0.00 MB

     Dynamical RAM for                 psi:       6.18 MB

     Dynamical RAM for                hpsi:       6.18 MB

     Dynamical RAM for      wfcinit/wfcrot:      16.50 MB

     Estimated static dynamical RAM per process >      96.25 MB

     Estimated max dynamical RAM per process >     200.70 MB

     Estimated total dynamical RAM >       1.18 GB
     Generating pointlists ...
     new r_m :   0.0477 (alat units)  0.9544 (a.u.) for type    1
     new r_m :   0.0477 (alat units)  0.9544 (a.u.) for type    2

     Initial potential from superposition of free atoms

     starting charge      17.0000, renormalised to      17.0000

     negative rho (up, down):  1.925E-05 1.925E-05
     Starting wfcs are   24 randomized atomic wfcs

     total cpu time spent up to now is        2.9 secs

     Self-consistent Calculation

     iteration #  1     ecut=   100.00 Ry     beta= 0.70
     Davidson diagonalization with overlap

---- Real-time Memory Report at c_bands before calling an iterative solver
           159 MiB given to the printing process from OS
             0 MiB allocation reported by mallinfo(arena+hblkhd)
          4570 MiB available memory on the node where the printing process lives
------------------
     ethr =  1.00E-04,  avg # of iterations =  4.0

     negative rho (up, down):  3.855E-06 5.227E-06

     total cpu time spent up to now is        6.6 secs

     total energy              =     -83.44286684 Ry
     estimated scf accuracy    <       0.27095716 Ry

     total magnetization       =     1.00 Bohr mag/cell
     absolute magnetization    =     1.00 Bohr mag/cell

     iteration #  2     ecut=   100.00 Ry     beta= 0.70
     Davidson diagonalization with overlap

---- Real-time Memory Report at c_bands before calling an iterative solver
           228 MiB given to the printing process from OS
             0 MiB allocation reported by mallinfo(arena+hblkhd)
          3908 MiB available memory on the node where the printing process lives
------------------
     ethr =  1.59E-03,  avg # of iterations =  5.0

     negative rho (up, down):  2.288E-06 3.367E-06

     total cpu time spent up to now is        9.6 secs

     total energy              =     -83.47477394 Ry
     estimated scf accuracy    <       0.47969059 Ry

     total magnetization       =     1.00 Bohr mag/cell
     absolute magnetization    =     1.03 Bohr mag/cell

     iteration #  3     ecut=   100.00 Ry     beta= 0.70
     Davidson diagonalization with overlap

---- Real-time Memory Report at c_bands before calling an iterative solver
           239 MiB given to the printing process from OS
             0 MiB allocation reported by mallinfo(arena+hblkhd)
          3827 MiB available memory on the node where the printing process lives
------------------
     ethr =  1.59E-03,  avg # of iterations =  4.0

     negative rho (up, down):  2.573E-07 5.224E-07

     total cpu time spent up to now is       12.4 secs

     total energy              =     -83.56233851 Ry
     estimated scf accuracy    <       0.00316837 Ry

     total magnetization       =     1.00 Bohr mag/cell
     absolute magnetization    =     1.03 Bohr mag/cell

     iteration #  4     ecut=   100.00 Ry     beta= 0.70
     Davidson diagonalization with overlap

---- Real-time Memory Report at c_bands before calling an iterative solver
           251 MiB given to the printing process from OS
             0 MiB allocation reported by mallinfo(arena+hblkhd)
          3765 MiB available memory on the node where the printing process lives
------------------
     ethr =  1.86E-05,  avg # of iterations =  4.5

     negative rho (up, down):  6.525E-09 2.335E-08

     total cpu time spent up to now is       15.5 secs

     total energy              =     -83.56394161 Ry
     estimated scf accuracy    <       0.00139001 Ry

     total magnetization       =     1.00 Bohr mag/cell
     absolute magnetization    =     1.04 Bohr mag/cell

     iteration #  5     ecut=   100.00 Ry     beta= 0.70
     Davidson diagonalization with overlap

---- Real-time Memory Report at c_bands before calling an iterative solver
           262 MiB given to the printing process from OS
             0 MiB allocation reported by mallinfo(arena+hblkhd)
          3700 MiB available memory on the node where the printing process lives
------------------
     ethr =  8.18E-06,  avg # of iterations =  2.5

     total cpu time spent up to now is       18.1 secs

     total energy              =     -83.56415817 Ry
     estimated scf accuracy    <       0.00007728 Ry

     total magnetization       =     1.00 Bohr mag/cell
     absolute magnetization    =     1.05 Bohr mag/cell

     iteration #  6     ecut=   100.00 Ry     beta= 0.70
     Davidson diagonalization with overlap

---- Real-time Memory Report at c_bands before calling an iterative solver
           272 MiB given to the printing process from OS
             0 MiB allocation reported by mallinfo(arena+hblkhd)
          3630 MiB available memory on the node where the printing process lives
------------------
     ethr =  4.55E-07,  avg # of iterations =  5.0

     total cpu time spent up to now is       21.4 secs

     total energy              =     -83.56420131 Ry
     estimated scf accuracy    <       0.00018774 Ry

     total magnetization       =     1.00 Bohr mag/cell
     absolute magnetization    =     1.05 Bohr mag/cell

     iteration #  7     ecut=   100.00 Ry     beta= 0.70
     Davidson diagonalization with overlap

---- Real-time Memory Report at c_bands before calling an iterative solver
           284 MiB given to the printing process from OS
             0 MiB allocation reported by mallinfo(arena+hblkhd)
          3559 MiB available memory on the node where the printing process lives
------------------
     ethr =  4.55E-07,  avg # of iterations =  5.0

     total cpu time spent up to now is       24.3 secs

     total energy              =     -83.56421699 Ry
     estimated scf accuracy    <       0.00003792 Ry

     total magnetization       =     1.00 Bohr mag/cell
     absolute magnetization    =     1.05 Bohr mag/cell

     iteration #  8     ecut=   100.00 Ry     beta= 0.70
     Davidson diagonalization with overlap

---- Real-time Memory Report at c_bands before calling an iterative solver
           295 MiB given to the printing process from OS
             0 MiB allocation reported by mallinfo(arena+hblkhd)
          3505 MiB available memory on the node where the printing process lives
------------------
     ethr =  2.23E-07,  avg # of iterations =  2.0

     total cpu time spent up to now is       26.8 secs

     total energy              =     -83.56421651 Ry
     estimated scf accuracy    <       0.00000875 Ry

     total magnetization       =     1.00 Bohr mag/cell
     absolute magnetization    =     1.05 Bohr mag/cell

     iteration #  9     ecut=   100.00 Ry     beta= 0.70
     Davidson diagonalization with overlap

---- Real-time Memory Report at c_bands before calling an iterative solver
           305 MiB given to the printing process from OS
             0 MiB allocation reported by mallinfo(arena+hblkhd)
          3439 MiB available memory on the node where the printing process lives
------------------
     ethr =  5.15E-08,  avg # of iterations =  4.0

     total cpu time spent up to now is       29.9 secs

     total energy              =     -83.56422005 Ry
     estimated scf accuracy    <       0.00000130 Ry

     total magnetization       =     1.00 Bohr mag/cell
     absolute magnetization    =     1.05 Bohr mag/cell

     iteration # 10     ecut=   100.00 Ry     beta= 0.70
     Davidson diagonalization with overlap

---- Real-time Memory Report at c_bands before calling an iterative solver
           317 MiB given to the printing process from OS
             0 MiB allocation reported by mallinfo(arena+hblkhd)
          3371 MiB available memory on the node where the printing process lives
------------------
     ethr =  7.64E-09,  avg # of iterations =  2.0

     total cpu time spent up to now is       32.5 secs

     total energy              =     -83.56421994 Ry
     estimated scf accuracy    <       0.00000059 Ry

     total magnetization       =     1.00 Bohr mag/cell
     absolute magnetization    =     1.05 Bohr mag/cell

     iteration # 11     ecut=   100.00 Ry     beta= 0.70
     Davidson diagonalization with overlap

---- Real-time Memory Report at c_bands before calling an iterative solver
           317 MiB given to the printing process from OS
             0 MiB allocation reported by mallinfo(arena+hblkhd)
          3370 MiB available memory on the node where the printing process lives
------------------
     ethr =  3.48E-09,  avg # of iterations =  1.5

     total cpu time spent up to now is       35.0 secs

     total energy              =     -83.56421998 Ry
     estimated scf accuracy    <       0.00000008 Ry

     total magnetization       =     1.00 Bohr mag/cell
     absolute magnetization    =     1.05 Bohr mag/cell

     iteration # 12     ecut=   100.00 Ry     beta= 0.70
     Davidson diagonalization with overlap

---- Real-time Memory Report at c_bands before calling an iterative solver
           317 MiB given to the printing process from OS
             0 MiB allocation reported by mallinfo(arena+hblkhd)
          3369 MiB available memory on the node where the printing process lives
------------------
     ethr =  4.83E-10,  avg # of iterations =  5.0

     total cpu time spent up to now is       38.2 secs

     total energy              =     -83.56422001 Ry
     estimated scf accuracy    <       0.00000002 Ry

     total magnetization       =     1.00 Bohr mag/cell
     absolute magnetization    =     1.05 Bohr mag/cell

     iteration # 13     ecut=   100.00 Ry     beta= 0.70
     Davidson diagonalization with overlap

---- Real-time Memory Report at c_bands before calling an iterative solver
           317 MiB given to the printing process from OS
             0 MiB allocation reported by mallinfo(arena+hblkhd)
          3372 MiB available memory on the node where the printing process lives
------------------
     ethr =  1.11E-10,  avg # of iterations =  1.0

     Magnetic moment per site  (integrated on atomic sphere of radius R)
     atom   1 (R=0.048)  charge=  1.9786  magn=  0.1693
     atom   2 (R=0.048)  charge=  3.0107  magn=  0.1716
     atom   3 (R=0.048)  charge=  3.0106  magn=  0.1717

     total cpu time spent up to now is       40.3 secs

     End of self-consistent calculation

 ------ SPIN UP ------------


          k = 0.0000 0.0000 0.0000 (135043 PWs)   bands (ev):

   -31.6392 -27.9811 -16.5316 -13.8333 -13.5978 -13.5797  -9.0954  -8.7832
    -6.5539

     occupation numbers 
     1.0000   1.0000   1.0000   1.0000   1.0000   1.0000   1.0000   1.0000
     1.0000

 ------ SPIN DOWN ----------


          k = 0.0000 0.0000 0.0000 (135043 PWs)   bands (ev):

   -31.2357 -27.5155 -15.9157 -13.3854 -13.3525 -12.6526  -8.9216  -8.1086
    -5.0127

     occupation numbers 
     1.0000   1.0000   1.0000   1.0000   1.0000   1.0000   1.0000   1.0000
     0.0000

     highest occupied, lowest unoccupied level (ev):    -6.5539   -5.0127

!    total energy              =     -83.56422001 Ry
     estimated scf accuracy    <          5.0E-09 Ry

     The total energy is the sum of the following terms:
     one-electron contribution =    -190.71034388 Ry
     hartree contribution      =      97.44247389 Ry
     xc contribution           =     -18.65249907 Ry
     ewald contribution        =      28.35614905 Ry

     total magnetization       =     1.00 Bohr mag/cell
     absolute magnetization    =     1.05 Bohr mag/cell

     convergence has been achieved in  13 iterations

     Writing all to output data dir ./scratch/no2.save/

     init_run     :      2.60s CPU      2.77s WALL (       1 calls)
     electrons    :     36.38s CPU     37.57s WALL (       1 calls)

     Called by init_run:
     wfcinit      :      1.28s CPU      1.30s WALL (       1 calls)
     wfcinit:atom :      0.01s CPU      0.02s WALL (       2 calls)
     wfcinit:wfcr :      1.23s CPU      1.24s WALL (       2 calls)
     potinit      :      0.83s CPU      0.95s WALL (       1 calls)
     hinit0       :      0.13s CPU      0.15s WALL (       1 calls)

     Called by electrons:
     c_bands      :     18.71s CPU     19.24s WALL (      13 calls)
     sum_band     :      4.86s CPU      5.02s WALL (      13 calls)
     v_of_rho     :      9.93s CPU     10.31s WALL (      14 calls)
     v_h          :      0.57s CPU      0.62s WALL (      14 calls)
     v_xc         :      9.35s CPU      9.69s WALL (      14 calls)
     mix_rho      :      3.15s CPU      3.29s WALL (      13 calls)

     Called by c_bands:
     init_us_2    :      0.04s CPU      0.04s WALL (      54 calls)
     init_us_2:cp :      0.04s CPU      0.04s WALL (      54 calls)
     cegterg      :     18.57s CPU     19.10s WALL (      26 calls)

     Called by sum_band:
     sum_band:wei :      0.00s CPU      0.00s WALL (      13 calls)
     sum_band:loo :      3.15s CPU      3.21s WALL (      13 calls)
     sum_band:buf :      0.05s CPU      0.05s WALL (      26 calls)
     sum_band:ini :      0.02s CPU      0.02s WALL (      26 calls)

     Called by *egterg:
     cdiaghg      :      0.01s CPU      0.01s WALL (     117 calls)
     cegterg:over :      0.61s CPU      0.61s WALL (      91 calls)
     cegterg:upda :      0.38s CPU      0.39s WALL (      91 calls)
     cegterg:last :      0.58s CPU      0.58s WALL (      63 calls)
     h_psi        :     17.82s CPU     18.36s WALL (     119 calls)
     g_psi        :      0.04s CPU      0.04s WALL (      91 calls)

     Called by h_psi:
     h_psi:calbec :      0.20s CPU      0.21s WALL (     119 calls)
     vloc_psi     :     17.32s CPU     17.85s WALL (     119 calls)
     add_vuspsi   :      0.13s CPU      0.14s WALL (     119 calls)

     General routines
     calbec       :      0.20s CPU      0.21s WALL (     119 calls)
     fft          :      7.10s CPU      7.49s WALL (     263 calls)
     ffts         :      0.64s CPU      0.68s WALL (      26 calls)
     fftw         :     16.41s CPU     16.87s WALL (    1708 calls)

     Parallel routines

     PWSCF        :     39.13s CPU     40.66s WALL


   This run was terminated on:  11:16: 9  25Sep2024            

=------------------------------------------------------------------------------=
   JOB DONE.
=------------------------------------------------------------------------------=
