 +-------------------------------------------------+
 |                                                 |
 |      CCC   AA    SSS  TTTTT  EEEEE  PPPP        |
 |     C     A  A  S       T    E      P   P       |
 |     C     AAAA   SS     T    EEE    PPPP        |
 |     C     A  A     S    T    E      P           |
 |      CCC  A  A  SSS     T    EEEEE  P           |
 |                                                 |
 +-------------------------------------------------+
 |                                                 |
 | Welcome to Academic Release CASTEP version 25.12|
 | Ab Initio Total Energy Program                  |
 |                                                 |
 | Authors:                                        |
 | M. Segall, M. Probert, C. Pickard, P. Hasnip,   |
 | S. Clark, K. Refson, J. R. Yates,               |
 | A. Bartok-Partay, M. Payne                      |
 |                                                 |
 | Contributors:                                   |
 | P. Lindan, P. Haynes, J. White, V. Milman,      |
 | N. Govind, M. Gibson, P. Tulip, V. Cocula,      |
 | B. Montanari, D. Quigley, M. Glover,            |
 | L. Bernasconi, A. Perlov, M. Plummer,           |
 | E. McNellis, J. Meyer, J. Gale, D. Jochym       |
 | J. Aarons, B. Walker, R. Gillen, D. Jones       |
 | T. Green, I. J. Bush, C. J. Armstrong,          |
 | E. J. Higgins, E. L. Brown, M. S. McFly,        |
 | J. Wilkins, B-C. Shih, P. J. P. Byrne,          |
 | R. J. Maurer, J. C. Womack, J. Dziedzic,        |
 | L. LeBlanc, T. K. Stenczel, J. Kermode,         |
 | S. Sturniolo, B. Shi, B. Durham, M. Evans,      |
 | M. J. Smith, A. Tamerus, Z. Hawkhead,           |
 | V. Ravindran, T. Hollins, S. A. Joyce,          |
 | R. T. Strong, A. M. Reilly, S. J. Donaldson,    |
 | J. C. A. Prentice                               |
 |                                                 |
 | Copyright (c) 2000 - 2024                       |
 |                                                 |
 |     Distributed under license from Cambridge    |
 |     Enterprise for academic use only.           |
 |                                                 |
 | Please cite                                     |
 |                                                 |
 |     "First principles methods using CASTEP"     |
 |                                                 |
 |         Zeitschrift fuer Kristallographie       |
 |           220(5-6) pp. 567-570 (2005)           |
 |                                                 |
 | S. J. Clark, M. D. Segall, C. J. Pickard,       |
 | P. J. Hasnip, M. J. Probert, K. Refson,         |
 | M. C. Payne                                     |
 |                                                 |
 |       in all publications arising from          |
 |              your use of CASTEP                 |
 |                                                 |
 +-------------------------------------------------+
 |                                                 |
 |              http://www.castep.org              |
 |                                                 |
 +-------------------------------------------------+



 Compiled for linux_x86_64_gfortran10 on mar., 14 avril 2026 16:05:35 +02
 from code version a000408f0  Castep251_branch  Tue Mar 11 13:44:46 2025 +0000
 Compiler: GNU Fortran 11.4.0; Optimisation: fast
 Comms   : Open MPI v4.1.2
 MATHLIBS: default (LAPACK version 3.10.0)
 FFT Lib : default
 Fundamental constants values: CODATA 2018

 Run started: Tue, 14 Apr 2026 16:09:56 +0200
 +-------------------------------------------------+
 |                                                 |
 |           N   N    M   M    RRRR                |
 |           NN  N    MM MM    R   R               |
 |           N N N    M M M    RRRR                |
 |           N  NN    M   M    R  R                |
 |           N   N    M   M    R   R               |
 |                                                 |
 +-------------------------------------------------+
 |                                                 |
 | Welcome to Materials Studio CASTEP-NMR          |
 |                                                 |
 | Authors:                                        |
 | J.R. Yates, C.J. Pickard, F. Mauri              |
 |                                                 |
 | Contributors:                                   |
 | T.F.G. Green, S.A. Joyce, R.T. Strong,          |
 | B-C. Shih                                       |
 |                                                 |
 | Copyright (c) 2004 - 2024                       |
 |                                                 |
 | Please cite the appropriate publications in all |
 | work arising from your use of CASTEP NMR.       |
 |                                                 |
 | For NMR Shielding Tensors cite:                 |
 |    "All-electron magnetic response with         |
 |    pseudopotentials: NMR chemical shifts",      |
 |    C. J. Pickard, F. Mauri;                     |
 |    Physical Review B63 245101 (2001), and       |
 |                                                 |
 |    "Calculation of NMR Chemical Shifts          |
 |    for extended systems using                   |
 |    Ultrasoft Pseudopotentials",                 |
 |    J. R. Yates, C. J. Pickard and F. Mauri      |
 |    Physical Review B76 024401 (2007)            |
 |                                                 |
 | For Electric Field Gradients cite:              |
 |   "Accurate First Principles Prediction of 17O  |
 |    NMR Parameters in SiO2: Assignment of the    |
 |    Zeolite Ferrierite Spectrum"                 |
 |    M. Profeta, F. Mauri and C. J. Pickard       |
 |    J. Amer. Chem. Soc. 125 541 (2003)           |
 |                                                 |
 | For Spin-Spin (J) Couplings cite:               |
 |   "A first principles theory of NMR J-coupling  |
 |   in solid-state systems"                       |
 |   S.A. Joyce, J.R. Yates, C.J. Pickard, F. Mauri|
 |   J. Chem. Phys. 127 204107 (2007)              |
 |                                                 |
 |   "Relativistic NMR J-coupling with ultrasoft   |
 |   pseudopotentials and the zeroth-order regular |
 |   approximation"                                |
 |   T.F.G. Green and J.R. Yates                   |
 |   J. Chem. Phys. 140 234106 (2014)              |
 |                                                 |
 +-------------------------------------------------+


 Atomic calculation performed for Li: 1s2 2s1

 Converged in 47 iterations to an ae energy of -202.784 eV

   ============================================================                
   | Pseudopotential Report - Date of generation 14-04-2026   |                
   ------------------------------------------------------------                
   | Element: Li Ionic charge:  3.00 Level of theory: PBE     |                
   | Atomic Solver: Koelling-Harmon                           |                
   |                                                          |                
   |               Reference Electronic Structure             |                
   |         Orbital         Occupation         Energy        |                
   |            1s              2.000           -1.906        |                
   |            2s              1.000           -0.106        |                
   |                                                          |                
   |                 Pseudopotential Definition               |                
   |        Beta     l      e      Rc     scheme   norm       |                
   |          1      0   -1.906   1.001     qc      0         |                
   |          2      0   -0.106   1.001     qc      0         |                
   |          3      0    0.250   1.001     qc      0         |                
   |         loc     1    0.000   1.001     pn      0         |                
   |                                                          |                
   | Augmentation charge Rinner = 0.699                       |                
   | No partial core correction                               |                
   ------------------------------------------------------------                
   | "1|1.0|14|16|18|10U:20(qc=7)"                            |                
   ------------------------------------------------------------                
   |      Author: Chris J. Pickard, Cambridge University      |                
   ============================================================                

 Atomic calculation performed for O: 1s2 2s2 2p4

 Converged in 61 iterations to an ae energy of -2040.902 eV

   ============================================================                
   | Pseudopotential Report - Date of generation 14-04-2026   |                
   ------------------------------------------------------------                
   | Element: O Ionic charge:  6.00 Level of theory: PBE      |                
   | Atomic Solver: Koelling-Harmon                           |                
   |                                                          |                
   |               Reference Electronic Structure             |                
   |         Orbital         Occupation         Energy        |                
   |            2s              2.000           -0.881        |                
   |            2p              4.000           -0.332        |                
   |                                                          |                
   |                 Pseudopotential Definition               |                
   |        Beta     l      e      Rc     scheme   norm       |                
   |          1      0   -0.881   1.100     qc      0         |                
   |          2      0    0.250   1.100     qc      0         |                
   |          3      1   -0.332   1.100     qc      0         |                
   |          4      1    0.250   1.100     qc      0         |                
   |         loc     2    0.000   1.100     pn      0         |                
   |                                                          |                
   | Augmentation charge Rinner = 0.769                       |                
   | Partial core correction Rc = 0.769                       |                
   ------------------------------------------------------------                
   | "2|1.1|17|20|23|20:21(qc=8)"                             |                
   ------------------------------------------------------------                
   |      Author: Chris J. Pickard, Cambridge University      |                
   ============================================================                

 Atomic calculation performed for Co: 1s2 2s2 2p6 3s2 3p6 3d7 4s2

 Converged in 96 iterations to an ae energy of -37909.410 eV

   ============================================================                
   | Pseudopotential Report - Date of generation 14-04-2026   |                
   ------------------------------------------------------------                
   | Element: Co Ionic charge:  9.00 Level of theory: PBE     |                
   | Atomic Solver: Koelling-Harmon                           |                
   |                                                          |                
   |               Reference Electronic Structure             |                
   |         Orbital         Occupation         Energy        |                
   |            3d              7.000           -0.301        |                
   |            4s              2.000           -0.201        |                
   |                                                          |                
   |                 Pseudopotential Definition               |                
   |        Beta     l      e      Rc     scheme   norm       |                
   |          1      0   -0.201   2.409     qc      0         |                
   |          2      0    0.250   2.409     qc      0         |                
   |          3      1    0.000   2.409     qc      0         |                
   |          4      1    0.250   2.409     qc      0         |                
   |          5      2   -0.301   2.005     qc      0         |                
   |          6      2    0.250   2.005     qc      0         |                
   |         loc     3    0.000   2.409     pn      0         |                
   |                                                          |                
   | Augmentation charge Rinner = 1.004                       |                
   | Partial core correction Rc = 1.004                       |                
   ------------------------------------------------------------                
   | "3|2.4|2.4|1.0|8|9|10|40:41:32U2U2(qc=5.5)"              |                
   ------------------------------------------------------------                
   |      Author: Chris J. Pickard, Cambridge University      |                
   ============================================================                

 Pseudo atomic calculation performed for Li 1s2 2s1

 Converged in 25 iterations to a total energy of -200.5056 eV

 Pseudo atomic calculation performed for O 2s2 2p4

 Converged in 38 iterations to a total energy of -432.3342 eV

 Pseudo atomic calculation performed for Co 3d7 4s2

 Converged in 53 iterations to a total energy of -1091.4019 eV
 Calculation parallelised over 5 processes.
 Data is distributed by k-point(5-way)

 ************************************ Title ************************************
 

 ***************************** General Parameters ******************************
  
 output verbosity                               : normal  (1)
 write checkpoint data to                       : licoo2.check
 type of calculation                            : Magnetic Resonance
 stress calculation                             : off
 density difference calculation                 : off
 electron localisation func (ELF) calculation   : off
 Hirshfeld analysis                             : off
 polarisation (Berry phase) analysis            : off
 molecular orbital projected DOS                : off
 deltaSCF calculation                           : off
 unlimited duration calculation
 timing information                             : on
 memory usage estimate                          : on
 write extra output files                       : on
 write final potential to formatted file        : off
 write final density to formatted file          : off
 write BibTeX reference list                    : on
 write OTFG pseudopotential files               : on
 write electrostatic potential file             : on
 write bands file                               : on
 checkpoint writing                             : both castep_bin and check files
  
 output         length unit                     : A
 output           mass unit                     : amu
 output           time unit                     : ps
 output         charge unit                     : e
 output           spin unit                     : hbar/2
 output         energy unit                     : eV
 output          force unit                     : eV/A
 output       velocity unit                     : A/ps
 output       pressure unit                     : GPa
 output     inv_length unit                     : 1/A
 output      frequency unit                     : cm-1
 output force constant unit                     : eV/A**2
 output         volume unit                     : A**3
 output   IR intensity unit                     : (D/A)**2/amu
 output         dipole unit                     : D
 output         efield unit                     : eV/A/e
 output        entropy unit                     : J/mol/K
 output    efield chi2 unit                     : pm/V
  
 wavefunctions paging                           : none
 random number generator seed                   :  160956963
 data distribution                              : optimal for this architecture
 optimization strategy                          : maximize speed(+++)

 *********************** Exchange-Correlation Parameters ***********************
  
 using functional                               : Perdew Burke Ernzerhof
 relativistic treatment                         : Koelling-Harmon
 DFT+D: Semi-empirical dispersion correction    : off

 ************************* Pseudopotential Parameters **************************
  
 pseudopotential representation                 : reciprocal space
 <beta|phi> representation                      : reciprocal space
 spin-orbit coupling                            : off

 **************************** Basis Set Parameters *****************************
  
 plane wave basis set cut-off                   :   816.0000   eV
 size of standard grid                          :     2.0000
 size of   fine   gmax                          :    29.2694   1/A
 finite basis set correction                    : none

 **************************** Electronic Parameters ****************************
  
 number of  electrons                           :  72.00    
 net charge of system                           :  0.000    
 treating system as non-spin-polarized
 number of bands                                :         36

 ********************* Electronic Minimization Parameters **********************
  
 Method: Treating system as non-metallic,
         and number of  SD  steps               :          1
         and number of  CG  steps               :          4
  
 total energy / atom convergence tol.           : 0.1000E-08   eV
 max force / atom convergence tol.              : ignored
 convergence tolerance window                   :          3   cycles
 max. number of SCF cycles                      :        200
 periodic dipole correction                     : NONE

 *********************** Population Analysis Parameters ************************
  
 Population analysis with cutoff                :  3.000       A
 Population analysis output                     : summary and pdos components

 ************************ Magnetic Resonance Parameters ************************
  
 Magnetic Resonance Property                    : Chemical Shielding + EFG
 Position Operator Method                       : crystal
 max. number of MagRes CG steps                 :        250
 Sternheimer convergence tolerance              : 0.3675E-13
 Non-SCF max. number of iterations              :        240
 Non-SCF max. steps per iteration               :          5

 *******************************************************************************
  

                           -------------------------------
                                      Unit Cell
                           -------------------------------
        Real Lattice(A)                      Reciprocal Lattice(1/A)
     2.8112570     0.0000000     0.0000000        2.235009233   1.290383182   0.000000000
    -1.4056285     2.4346200     0.0000000        0.000000000   2.580766365   0.000000000
     0.0000000     0.0000000    13.9094564        0.000000000   0.000000000   0.451720406

                       Lattice parameters(A)       Cell Angles
                    a =      2.811257          alpha =   90.000000
                    b =      2.811257          beta  =   90.000000
                    c =     13.909456          gamma =  120.000000

                       Current cell volume =            95.201082       A**3
                                   density =             3.084198   AMU/A**3
                                           =             5.121432     g/cm^3

                           -------------------------------
                                     Cell Contents
                           -------------------------------
                         Total number of ions in cell =   12
                      Total number of species in cell =    3
                        Max number of any one species =    6

            xxxxxxxxxxxxxxxxxxxxxxxxxxxxxxxxxxxxxxxxxxxxxxxxxxxxxxxxxxxx
            x  Element    Atom        Fractional coordinates of atoms  x
            x            Number           u          v          w      x
            x----------------------------------------------------------x
            x  Li           1         0.000000   0.000000   0.000000   x 
            x  Li           2         0.666667   0.333333   0.333333   x 
            x  Li           3         0.333333   0.666667   0.666667   x 
            x  O            1         0.000000   0.000000   0.240007   x 
            x  O            2         0.666667   0.333333   0.093327   x 
            x  O            3         0.666667   0.333333   0.573340   x 
            x  O            4         0.333333   0.666667   0.426660   x 
            x  O            5         0.333333   0.666667   0.906673   x 
            x  O            6         0.000000   0.000000   0.759993   x 
            x  Co           1         0.333333   0.666667   0.166667   x 
            x  Co           2         1.000000   0.000000   0.500000   x 
            x  Co           3         0.666667   0.333333   0.833333   x 
            xxxxxxxxxxxxxxxxxxxxxxxxxxxxxxxxxxxxxxxxxxxxxxxxxxxxxxxxxxxx


                         No user defined ionic velocities

                           -------------------------------
                                   Details of Species
                           -------------------------------

                               Mass of species in AMU
                                    Li    6.9410000
                                    O   15.9994000
                                    Co   58.9332000

                          Electric Quadrupole Moment (Barn)
                                    Li   -0.0401000 Isotope   7
                                    O   -0.0255800 Isotope  17
                                    Co    0.4200000 Isotope  59


         Quantisation axis:    0.00000   0.00000   1.00000

         Units for Hubbard U values are eV
         xxxxxxxxxxxxxxxxxxxxxxxxxxxxxxxxxxxxxxxxxxxxxxxxxxxxxxxxxxxxxxxxxxxx
         |  Element     Atom     Hubbard U   values by orbital type         |
         |             Number      s          p          d          f       |
         |------------------------------------------------------------------|
         |Li            1         0.00000    0.00000    0.00000    0.00000  |
         |Li            2         0.00000    0.00000    0.00000    0.00000  |
         |Li            3         0.00000    0.00000    0.00000    0.00000  |
         |O             1         0.00000    0.00000    0.00000    0.00000  |
         |O             2         0.00000    0.00000    0.00000    0.00000  |
         |O             3         0.00000    0.00000    0.00000    0.00000  |
         |O             4         0.00000    0.00000    0.00000    0.00000  |
         |O             5         0.00000    0.00000    0.00000    0.00000  |
         |O             6         0.00000    0.00000    0.00000    0.00000  |
         |Co            1         0.00000    0.00000    8.00000    0.00000  |
         |Co            2         0.00000    0.00000    8.00000    0.00000  |
         |Co            3         0.00000    0.00000    8.00000    0.00000  |
         xxxxxxxxxxxxxxxxxxxxxxxxxxxxxxxxxxxxxxxxxxxxxxxxxxxxxxxxxxxxxxxxxxxx


                          Files used for pseudopotentials:
                                    Li 1|1.0|14|16|18|10U:20(qc=7)
                                    O 2|1.1|17|20|23|20:21(qc=8)
                                    Co 3|2.4|2.4|1.0|8|9|10|40:41:32U2U2(qc=5.5)

                           -------------------------------
                              k-Points For BZ Sampling
                           -------------------------------
                       MP grid size for SCF calculation is  3  3  1
                            with an offset of   0.000  0.000  0.000
                       Number of kpoints used =             5

                           -------------------------------
                               Symmetry and Constraints
                           -------------------------------

                      Cell is a supercell containing 3 primitive cells
                      Maximum deviation from symmetry =  0.00000         ANG

                      Number of symmetry operations   =           1
                      Number of ionic constraints     =           3
                      Point group of crystal =     1: C1, 1, 1
                      Space group of crystal =   166: R-3m, -R 3 2"

             Set iprint > 1 for details on symmetry rotations/translations

                         Centre of mass is constrained
             Set iprint > 2 for details of linear ionic constraints

                         Number of cell constraints= 0
                         Cell constraints are:  1 2 3 4 5 6

                         External pressure/stress (GPa)
                          0.00000   0.00000   0.00000
                                    0.00000   0.00000
                                              0.00000
 
+---------------- MEMORY AND SCRATCH DISK ESTIMATES PER PROCESS --------------+
|                                                     Memory          Disk    |
| Baseline code, static data and system overhead      256.0 MB         0.0 MB |
| BLAS internal memory storage                          0.0 MB         0.0 MB |
| Model and support data                              444.1 MB         0.0 MB |
| Electronic energy minimisation requirements          22.6 MB         0.0 MB |
| Force calculation requirements                       14.3 MB         0.0 MB |
|                                               ----------------------------- |
| Approx. total storage required per process          722.6 MB         0.0 MB |
|                                                                             |
| Requirements will fluctuate during execution and may exceed these estimates |
+-----------------------------------------------------------------------------+
Calculating approximate eigenstates for fixed initial Hamiltonian
Cut-off for approx. calculation is   89.988 eV
Improving approx. states at cut-off of  408.000 eV
Resetting cut-off to  816.000 eV
Improving states further at cut-off of  816.000 eV
Calculating total energy with cut-off of  816.000 eV.
 WARNING: Hubbard U run with fixed occupancies:  Results can be inaccurate or even wrong!

 Pseudo atomic calculation performed for Li 1s2 2s1

 Converged in 25 iterations to a total energy of -200.5056 eV

 Pseudo atomic calculation performed for O 2s2 2p4

 Converged in 38 iterations to a total energy of -432.3342 eV

 Pseudo atomic calculation performed for Co 3d7 4s2

 Converged in 53 iterations to a total energy of -1091.4019 eV
------------------------------------------------------------------------ <-- SCF
SCF loop      Energy                           Energy gain       Timer   <-- SCF
                                               per atom          (sec)   <-- SCF
------------------------------------------------------------------------ <-- SCF
Initial  -6.50907987E+003                                         14.31  <-- SCF
      1  -6.52654764E+003                    1.45564760E+000      19.23  <-- SCF
      2  -6.53024377E+003                    3.08010799E-001      24.36  <-- SCF
      3  -6.53487219E+003                    3.85701680E-001      29.04  <-- SCF
      4  -6.53614060E+003                    1.05701006E-001      33.60  <-- SCF
      5  -6.53633123E+003                    1.58852977E-002      38.04  <-- SCF
      6  -6.53636568E+003                    2.87103077E-003      42.59  <-- SCF
      7  -6.53637303E+003                    6.12087877E-004      47.23  <-- SCF
      8  -6.53637495E+003                    1.60647892E-004      51.83  <-- SCF
      9  -6.53637556E+003                    5.08639874E-005      56.28  <-- SCF
     10  -6.53637577E+003                    1.71768229E-005      60.72  <-- SCF
     11  -6.53637584E+003                    5.94664396E-006      65.28  <-- SCF
     12  -6.53637587E+003                    2.07522483E-006      69.78  <-- SCF
     13  -6.53637588E+003                    7.26016505E-007      74.25  <-- SCF
     14  -6.53637588E+003                    2.55413083E-007      78.75  <-- SCF
     15  -6.53637588E+003                    8.99278183E-008      83.26  <-- SCF
     16  -6.53637588E+003                    3.18866526E-008      87.78  <-- SCF
     17  -6.53637588E+003                    1.13269368E-008      92.39  <-- SCF
     18  -6.53637588E+003                    4.05361634E-009      97.00  <-- SCF
     19  -6.53637588E+003                    1.44238002E-009     101.93  <-- SCF
     20  -6.53637588E+003                    5.38991247E-010     106.95  <-- SCF
     21  -6.53637588E+003                    1.82585460E-010     112.07  <-- SCF
------------------------------------------------------------------------ <-- SCF
 

     Hubbard U occupation numbers
     ----------------------------
Species   Ion   l                     occupancies
==================================================================
  Co       1    2         0.91  0.91  1.99  1.99  1.99
  Co       2    2         0.91  0.91  1.99  1.99  1.99
  Co       3    2         0.91  0.91  1.99  1.99  1.99
==================================================================

Final energy =  -6536.375879767     eV
(energy not corrected for finite basis set)
 

Writing analysis data to licoo2.castep_bin

Writing model to licoo2.check

  =====================================================================
  +       Calculation of Nuclear Magnetic Resonance Parameters        +
  + ================================================================= +

  Starting Calculation of Electric Field Gradient Tensors         |<-- EFG
  +---------------- MEMORY AND SCRATCH DISK ESTIMATES PER PROCESS --------------+
  |                                                     Memory          Disk    |
  | Model and support data                              430.1 MB         0.0 MB |
  | NMR EFG calculation requirements                     24.1 MB         0.0 MB |
  |                                               ----------------------------- |
  | Approx. total storage required per process          454.2 MB         0.0 MB |
  |                                                                             |
  | Requirements will fluctuate during execution and may exceed these estimates |
  +-----------------------------------------------------------------------------+
 WARNING: Hubbard U run with fixed occupancies:  Results can be inaccurate or even wrong!

 Pseudo atomic calculation performed for Li 1s2 2s1

 Converged in 25 iterations to a total energy of -200.5056 eV

 Pseudo atomic calculation performed for O 2s2 2p4

 Converged in 38 iterations to a total energy of -432.3342 eV

 Pseudo atomic calculation performed for Co 3d7 4s2

 Converged in 53 iterations to a total energy of -1091.4019 eV
  Total Time for EFG Tensors                       4.70 sec       |<-- EFG

  Starting Calculation of Chemical Shielding Tensors              |<-- NMR
  +---------------- MEMORY AND SCRATCH DISK ESTIMATES PER PROCESS --------------+
  |                                                     Memory          Disk    |
  | Model and support data                              430.1 MB         0.0 MB |
  | NMR chemical shift calculation requirements          36.4 MB         0.0 MB |
  |                                               ----------------------------- |
  | Approx. total storage required per process          466.5 MB         0.0 MB |
  |                                                                             |
  | Requirements will fluctuate during execution and may exceed these estimates |
  +-----------------------------------------------------------------------------+
 WARNING: Hubbard U run with fixed occupancies:  Results can be inaccurate or even wrong!

 Pseudo atomic calculation performed for Li 1s2 2s1

 Converged in 25 iterations to a total energy of -200.5056 eV

 Pseudo atomic calculation performed for O 2s2 2p4

 Converged in 38 iterations to a total energy of -432.3342 eV

 Pseudo atomic calculation performed for Co 3d7 4s2

 Converged in 53 iterations to a total energy of -1091.4019 eV
  Starting k-point:   1 of   1                                    |<-- NMR
  Total Time for step 1 of 6:                     23.70 sec       |<-- NMR
  Total Time for step 2 of 6:                     24.23 sec       |<-- NMR
  Total Time for step 3 of 6:                     24.58 sec       |<-- NMR
  Total Time for step 4 of 6:                     45.40 sec       |<-- NMR
  Total Time for step 5 of 6:                     48.25 sec       |<-- NMR
  Total Time for step 6 of 6:                     43.13 sec       |<-- NMR
  Total Time for Chemical Shielding Tensors      256.45 sec       |<-- NMR

  ===============================================================================
  |                Chemical Shielding and Electric Field Gradient Tensors       |
  |-----------------------------------------------------------------------------|
  |     Nucleus                       Shielding tensor             EFG Tensor   |
  |    Species            Ion    Iso(ppm)   Aniso(ppm)  Asym    Cq(MHz)    Eta  |
  |    Li                 1       87.06      -3.37      0.14   4.400E-01   0.00 |
  |    Li                 2       87.06      -3.36      0.14   4.400E-01   0.00 |
  |    Li                 3       87.06      -3.36      0.14   4.400E-01   0.00 |
  |    O                  1      230.66     -38.51      0.01   1.385E+00   0.00 |
  |    O                  2      230.67     -38.50      0.01   1.385E+00   0.00 |
  |    O                  3      230.67     -38.49      0.01   1.385E+00   0.00 |
  |    O                  4      230.68     -38.53      0.01   1.385E+00   0.00 |
  |    O                  5      230.66     -38.49      0.01   1.385E+00   0.00 |
  |    O                  6      230.68     -38.53      0.01   1.385E+00   0.00 |
  |    Co                 1    -4807.12    -522.18      0.00  -3.353E+01   0.00 |
  |    Co                 2    -4807.13    -522.18      0.00  -3.353E+01   0.00 |
  |    Co                 3    -4807.11    -522.18      0.00  -3.353E+01   0.00 |
  ===============================================================================
 WARNING: Hubbard U run with fixed occupancies:  Results can be inaccurate or even wrong!

 Pseudo atomic calculation performed for Li 1s2 2s1

 Converged in 25 iterations to a total energy of -200.5056 eV

 Pseudo atomic calculation performed for O 2s2 2p4

 Converged in 38 iterations to a total energy of -432.3342 eV

 Pseudo atomic calculation performed for Co 3d7 4s2

 Converged in 53 iterations to a total energy of -1091.4019 eV

 ************************** Forces **************************
 *                                                          *
 *               Cartesian components (eV/A)                *
 * -------------------------------------------------------- *
 *                         x            y            z      *
 *                                                          *
 * Li              1     -0.00000     -0.00000      0.00000 *
 * Li              2      0.00000     -0.00000     -0.00000 *
 * Li              3     -0.00000      0.00000     -0.00000 *
 * O               1     -0.00069      0.00040      0.43832 *
 * O               2      0.00069     -0.00040     -0.43833 *
 * O               3     -0.00063      0.00034      0.43833 *
 * O               4      0.00063     -0.00034     -0.43833 *
 * O               5     -0.00067      0.00039      0.43832 *
 * O               6      0.00067     -0.00039     -0.43832 *
 * Co              1      0.00000     -0.00000     -0.00000 *
 * Co              2      0.00000     -0.00000      0.00000 *
 * Co              3     -0.00000      0.00000      0.00000 *
 *                                                          *
 ************************************************************

 Pseudo atomic calculation performed for Li 1s2 2s1

 Converged in 25 iterations to a total energy of -200.5056 eV

 Pseudo atomic calculation performed for O 2s2 2p4

 Converged in 38 iterations to a total energy of -432.3342 eV

 Pseudo atomic calculation performed for Co 3d7 4s2

 Converged in 53 iterations to a total energy of -1091.4019 eV
Charge spilling parameter for spin component 1 = 0.11%

            Orbital Populations       
     Ion    Atom   Orbital             Charge
  -------------------------------------------
     Li     1      S                    2.008
     Li     1      S                   -0.025
     Li     1      Px                   0.154
     Li     1      Py                   0.154
     Li     1      Pz                   0.114
     Li     2      S                    2.008
     Li     2      S                   -0.025
     Li     2      Px                   0.154
     Li     2      Py                   0.154
     Li     2      Pz                   0.114
     Li     3      S                    2.008
     Li     3      S                   -0.025
     Li     3      Px                   0.154
     Li     3      Py                   0.154
     Li     3      Pz                   0.114
      O     1      S                    1.840
      O     1      Px                   1.584
      O     1      Py                   1.584
      O     1      Pz                   1.641
      O     2      S                    1.840
      O     2      Px                   1.584
      O     2      Py                   1.584
      O     2      Pz                   1.641
      O     3      S                    1.840
      O     3      Px                   1.584
      O     3      Py                   1.584
      O     3      Pz                   1.641
      O     4      S                    1.840
      O     4      Px                   1.584
      O     4      Py                   1.584
      O     4      Pz                   1.641
      O     5      S                    1.840
      O     5      Px                   1.584
      O     5      Py                   1.584
      O     5      Pz                   1.641
      O     6      S                    1.840
      O     6      Px                   1.584
      O     6      Py                   1.584
      O     6      Pz                   1.641
     Co     1      Dzz                  1.990
     Co     1      Dzy                  1.181
     Co     1      Dzx                  1.181
     Co     1      Dxx-yy               1.544
     Co     1      Dxy                  1.545
     Co     1      S                    0.329
     Co     1      Px                   0.164
     Co     1      Py                   0.164
     Co     1      Pz                   0.198
     Co     2      Dzz                  1.990
     Co     2      Dzy                  1.181
     Co     2      Dzx                  1.181
     Co     2      Dxx-yy               1.544
     Co     2      Dxy                  1.545
     Co     2      S                    0.329
     Co     2      Px                   0.164
     Co     2      Py                   0.164
     Co     2      Pz                   0.198
     Co     3      Dzz                  1.990
     Co     3      Dzy                  1.181
     Co     3      Dzx                  1.181
     Co     3      Dxx-yy               1.544
     Co     3      Dxy                  1.545
     Co     3      S                    0.329
     Co     3      Px                   0.164
     Co     3      Py                   0.164
     Co     3      Pz                   0.198
  -------------------------------------------
                           Total:      72.000
  -------------------------------------------

     Atomic Populations (Mulliken)
     -----------------------------
Species          Ion     s       p       d       f      Total   Charge (e)
==========================================================================
  Li              1     1.983   0.423   0.000   0.000   2.406     0.594
  Li              2     1.983   0.423   0.000   0.000   2.406     0.594
  Li              3     1.983   0.423   0.000   0.000   2.406     0.594
  O               1     1.840   4.809   0.000   0.000   6.649    -0.649
  O               2     1.840   4.809   0.000   0.000   6.649    -0.649
  O               3     1.840   4.809   0.000   0.000   6.649    -0.649
  O               4     1.840   4.809   0.000   0.000   6.649    -0.649
  O               5     1.840   4.809   0.000   0.000   6.649    -0.649
  O               6     1.840   4.809   0.000   0.000   6.649    -0.649
  Co              1     0.329   0.526   7.441   0.000   8.296     0.704
  Co              2     0.329   0.526   7.441   0.000   8.296     0.704
  Co              3     0.329   0.526   7.441   0.000   8.296     0.704
==========================================================================

                 Bond                   Population      Length (A)
======================================================================
               O 4 -- Co 2                   0.80        1.91704
               O 1 -- Co 1                   0.80        1.91704
               O 3 -- Co 2                   0.80        1.91704
               O 6 -- Co 3                   0.80        1.91704
               O 5 -- Co 3                   0.80        1.91704
               O 2 -- Co 1                   0.80        1.91704
              Li 3 -- O 6                    0.24        2.07834
              Li 1 -- O 5                    0.24        2.07834
              Li 2 -- O 1                    0.24        2.07834
              Li 1 -- O 2                    0.24        2.07834
              Li 2 -- O 4                    0.24        2.07834
              Li 3 -- O 3                    0.24        2.07834
======================================================================


Writing analysis data to licoo2.castep_bin

Writing model to licoo2.check
 
 A BibTeX formatted list of references used in this run has been written to 
 licoo2.bib
 
Initialisation time =      7.91 s
Calculation time    =    370.74 s
Finalisation time   =      0.16 s
Total time          =    378.81 s
Peak Memory Use     = 1147812 kB
 
Overall parallel efficiency rating: Excellent (97%)
 
Data was distributed by:-
k-point (5-way); efficiency rating: Excellent (97%)
 
Parallel notes:
1) Calculation only took 378.7 s, so efficiency estimates may be inaccurate.
 +-------------------------------------------------+
 |                                                 |
 |      CCC   AA    SSS  TTTTT  EEEEE  PPPP        |
 |     C     A  A  S       T    E      P   P       |
 |     C     AAAA   SS     T    EEE    PPPP        |
 |     C     A  A     S    T    E      P           |
 |      CCC  A  A  SSS     T    EEEEE  P           |
 |                                                 |
 +-------------------------------------------------+
 |                                                 |
 | Welcome to Academic Release CASTEP version 25.12|
 | Ab Initio Total Energy Program                  |
 |                                                 |
 | Authors:                                        |
 | M. Segall, M. Probert, C. Pickard, P. Hasnip,   |
 | S. Clark, K. Refson, J. R. Yates,               |
 | A. Bartok-Partay, M. Payne                      |
 |                                                 |
 | Contributors:                                   |
 | P. Lindan, P. Haynes, J. White, V. Milman,      |
 | N. Govind, M. Gibson, P. Tulip, V. Cocula,      |
 | B. Montanari, D. Quigley, M. Glover,            |
 | L. Bernasconi, A. Perlov, M. Plummer,           |
 | E. McNellis, J. Meyer, J. Gale, D. Jochym       |
 | J. Aarons, B. Walker, R. Gillen, D. Jones       |
 | T. Green, I. J. Bush, C. J. Armstrong,          |
 | E. J. Higgins, E. L. Brown, M. S. McFly,        |
 | J. Wilkins, B-C. Shih, P. J. P. Byrne,          |
 | R. J. Maurer, J. C. Womack, J. Dziedzic,        |
 | L. LeBlanc, T. K. Stenczel, J. Kermode,         |
 | S. Sturniolo, B. Shi, B. Durham, M. Evans,      |
 | M. J. Smith, A. Tamerus, Z. Hawkhead,           |
 | V. Ravindran, T. Hollins, S. A. Joyce,          |
 | R. T. Strong, A. M. Reilly, S. J. Donaldson,    |
 | J. C. A. Prentice                               |
 |                                                 |
 | Copyright (c) 2000 - 2024                       |
 |                                                 |
 |     Distributed under license from Cambridge    |
 |     Enterprise for academic use only.           |
 |                                                 |
 | Please cite                                     |
 |                                                 |
 |     "First principles methods using CASTEP"     |
 |                                                 |
 |         Zeitschrift fuer Kristallographie       |
 |           220(5-6) pp. 567-570 (2005)           |
 |                                                 |
 | S. J. Clark, M. D. Segall, C. J. Pickard,       |
 | P. J. Hasnip, M. J. Probert, K. Refson,         |
 | M. C. Payne                                     |
 |                                                 |
 |       in all publications arising from          |
 |              your use of CASTEP                 |
 |                                                 |
 +-------------------------------------------------+
 |                                                 |
 |              http://www.castep.org              |
 |                                                 |
 +-------------------------------------------------+



 Compiled for linux_x86_64_gfortran10 on mar., 14 avril 2026 16:22:27 +02
 from code version a000408f0  Castep251_branch  Tue Mar 11 13:44:46 2025 +0000
 Compiler: GNU Fortran 11.4.0; Optimisation: fast
 Comms   : Open MPI v4.1.2
 MATHLIBS: default (LAPACK version 3.10.0)
 FFT Lib : default
 Fundamental constants values: CODATA 2018

 Run started: Tue, 14 Apr 2026 16:22:50 +0200
 +-------------------------------------------------+
 |                                                 |
 |           N   N    M   M    RRRR                |
 |           NN  N    MM MM    R   R               |
 |           N N N    M M M    RRRR                |
 |           N  NN    M   M    R  R                |
 |           N   N    M   M    R   R               |
 |                                                 |
 +-------------------------------------------------+
 |                                                 |
 | Welcome to Materials Studio CASTEP-NMR          |
 |                                                 |
 | Authors:                                        |
 | J.R. Yates, C.J. Pickard, F. Mauri              |
 |                                                 |
 | Contributors:                                   |
 | T.F.G. Green, S.A. Joyce, R.T. Strong,          |
 | B-C. Shih                                       |
 |                                                 |
 | Copyright (c) 2004 - 2024                       |
 |                                                 |
 | Please cite the appropriate publications in all |
 | work arising from your use of CASTEP NMR.       |
 |                                                 |
 | For NMR Shielding Tensors cite:                 |
 |    "All-electron magnetic response with         |
 |    pseudopotentials: NMR chemical shifts",      |
 |    C. J. Pickard, F. Mauri;                     |
 |    Physical Review B63 245101 (2001), and       |
 |                                                 |
 |    "Calculation of NMR Chemical Shifts          |
 |    for extended systems using                   |
 |    Ultrasoft Pseudopotentials",                 |
 |    J. R. Yates, C. J. Pickard and F. Mauri      |
 |    Physical Review B76 024401 (2007)            |
 |                                                 |
 | For Electric Field Gradients cite:              |
 |   "Accurate First Principles Prediction of 17O  |
 |    NMR Parameters in SiO2: Assignment of the    |
 |    Zeolite Ferrierite Spectrum"                 |
 |    M. Profeta, F. Mauri and C. J. Pickard       |
 |    J. Amer. Chem. Soc. 125 541 (2003)           |
 |                                                 |
 | For Spin-Spin (J) Couplings cite:               |
 |   "A first principles theory of NMR J-coupling  |
 |   in solid-state systems"                       |
 |   S.A. Joyce, J.R. Yates, C.J. Pickard, F. Mauri|
 |   J. Chem. Phys. 127 204107 (2007)              |
 |                                                 |
 |   "Relativistic NMR J-coupling with ultrasoft   |
 |   pseudopotentials and the zeroth-order regular |
 |   approximation"                                |
 |   T.F.G. Green and J.R. Yates                   |
 |   J. Chem. Phys. 140 234106 (2014)              |
 |                                                 |
 +-------------------------------------------------+


 Atomic calculation performed for Li: 1s2 2s1

 Converged in 47 iterations to an ae energy of -202.784 eV

   ============================================================                
   | Pseudopotential Report - Date of generation 14-04-2026   |                
   ------------------------------------------------------------                
   | Element: Li Ionic charge:  3.00 Level of theory: PBE     |                
   | Atomic Solver: Koelling-Harmon                           |                
   |                                                          |                
   |               Reference Electronic Structure             |                
   |         Orbital         Occupation         Energy        |                
   |            1s              2.000           -1.906        |                
   |            2s              1.000           -0.106        |                
   |                                                          |                
   |                 Pseudopotential Definition               |                
   |        Beta     l      e      Rc     scheme   norm       |                
   |          1      0   -1.906   1.001     qc      0         |                
   |          2      0   -0.106   1.001     qc      0         |                
   |          3      0    0.250   1.001     qc      0         |                
   |         loc     1    0.000   1.001     pn      0         |                
   |                                                          |                
   | Augmentation charge Rinner = 0.699                       |                
   | No partial core correction                               |                
   ------------------------------------------------------------                
   | "1|1.0|14|16|18|10U:20(qc=7)"                            |                
   ------------------------------------------------------------                
   |      Author: Chris J. Pickard, Cambridge University      |                
   ============================================================                

 Atomic calculation performed for O: 1s2 2s2 2p4

 Converged in 61 iterations to an ae energy of -2040.902 eV

   ============================================================                
   | Pseudopotential Report - Date of generation 14-04-2026   |                
   ------------------------------------------------------------                
   | Element: O Ionic charge:  6.00 Level of theory: PBE      |                
   | Atomic Solver: Koelling-Harmon                           |                
   |                                                          |                
   |               Reference Electronic Structure             |                
   |         Orbital         Occupation         Energy        |                
   |            2s              2.000           -0.881        |                
   |            2p              4.000           -0.332        |                
   |                                                          |                
   |                 Pseudopotential Definition               |                
   |        Beta     l      e      Rc     scheme   norm       |                
   |          1      0   -0.881   1.100     qc      0         |                
   |          2      0    0.250   1.100     qc      0         |                
   |          3      1   -0.332   1.100     qc      0         |                
   |          4      1    0.250   1.100     qc      0         |                
   |         loc     2    0.000   1.100     pn      0         |                
   |                                                          |                
   | Augmentation charge Rinner = 0.769                       |                
   | Partial core correction Rc = 0.769                       |                
   ------------------------------------------------------------                
   | "2|1.1|17|20|23|20:21(qc=8)"                             |                
   ------------------------------------------------------------                
   |      Author: Chris J. Pickard, Cambridge University      |                
   ============================================================                

 Atomic calculation performed for Co: 1s2 2s2 2p6 3s2 3p6 3d7 4s2

 Converged in 96 iterations to an ae energy of -37909.410 eV

   ============================================================                
   | Pseudopotential Report - Date of generation 14-04-2026   |                
   ------------------------------------------------------------                
   | Element: Co Ionic charge:  9.00 Level of theory: PBE     |                
   | Atomic Solver: Koelling-Harmon                           |                
   |                                                          |                
   |               Reference Electronic Structure             |                
   |         Orbital         Occupation         Energy        |                
   |            3d              7.000           -0.301        |                
   |            4s              2.000           -0.201        |                
   |                                                          |                
   |                 Pseudopotential Definition               |                
   |        Beta     l      e      Rc     scheme   norm       |                
   |          1      0   -0.201   2.409     qc      0         |                
   |          2      0    0.250   2.409     qc      0         |                
   |          3      1    0.000   2.409     qc      0         |                
   |          4      1    0.250   2.409     qc      0         |                
   |          5      2   -0.301   2.005     qc      0         |                
   |          6      2    0.250   2.005     qc      0         |                
   |         loc     3    0.000   2.409     pn      0         |                
   |                                                          |                
   | Augmentation charge Rinner = 1.004                       |                
   | Partial core correction Rc = 1.004                       |                
   ------------------------------------------------------------                
   | "3|2.4|2.4|1.0|8|9|10|40:41:32U2U2(qc=5.5)"              |                
   ------------------------------------------------------------                
   |      Author: Chris J. Pickard, Cambridge University      |                
   ============================================================                

 Pseudo atomic calculation performed for Li 1s2 2s1

 Converged in 25 iterations to a total energy of -200.5056 eV

 Pseudo atomic calculation performed for O 2s2 2p4

 Converged in 38 iterations to a total energy of -432.3342 eV

 Pseudo atomic calculation performed for Co 3d7 4s2

 Converged in 53 iterations to a total energy of -1091.4019 eV
 Calculation parallelised over 5 processes.
 Data is distributed by k-point(5-way)

 ************************************ Title ************************************
 

 ***************************** General Parameters ******************************
  
 output verbosity                               : normal  (1)
 write checkpoint data to                       : licoo2.check
 type of calculation                            : Magnetic Resonance
 stress calculation                             : off
 density difference calculation                 : off
 electron localisation func (ELF) calculation   : off
 Hirshfeld analysis                             : off
 polarisation (Berry phase) analysis            : off
 molecular orbital projected DOS                : off
 deltaSCF calculation                           : off
 unlimited duration calculation
 timing information                             : on
 memory usage estimate                          : on
 write extra output files                       : on
 write final potential to formatted file        : off
 write final density to formatted file          : off
 write BibTeX reference list                    : on
 write OTFG pseudopotential files               : on
 write electrostatic potential file             : on
 write bands file                               : on
 checkpoint writing                             : both castep_bin and check files
  
 output         length unit                     : A
 output           mass unit                     : amu
 output           time unit                     : ps
 output         charge unit                     : e
 output           spin unit                     : hbar/2
 output         energy unit                     : eV
 output          force unit                     : eV/A
 output       velocity unit                     : A/ps
 output       pressure unit                     : GPa
 output     inv_length unit                     : 1/A
 output      frequency unit                     : cm-1
 output force constant unit                     : eV/A**2
 output         volume unit                     : A**3
 output   IR intensity unit                     : (D/A)**2/amu
 output         dipole unit                     : D
 output         efield unit                     : eV/A/e
 output        entropy unit                     : J/mol/K
 output    efield chi2 unit                     : pm/V
  
 wavefunctions paging                           : none
 random number generator seed                   :  162250018
 data distribution                              : optimal for this architecture
 optimization strategy                          : maximize speed(+++)

 *********************** Exchange-Correlation Parameters ***********************
  
 using functional                               : Perdew Burke Ernzerhof
 relativistic treatment                         : Koelling-Harmon
 DFT+D: Semi-empirical dispersion correction    : off

 ************************* Pseudopotential Parameters **************************
  
 pseudopotential representation                 : reciprocal space
 <beta|phi> representation                      : reciprocal space
 spin-orbit coupling                            : off

 **************************** Basis Set Parameters *****************************
  
 plane wave basis set cut-off                   :   816.0000   eV
 size of standard grid                          :     2.0000
 size of   fine   gmax                          :    29.2694   1/A
 finite basis set correction                    : none

 **************************** Electronic Parameters ****************************
  
 number of  electrons                           :  72.00    
 net charge of system                           :  0.000    
 treating system as non-spin-polarized
 number of bands                                :         36

 ********************* Electronic Minimization Parameters **********************
  
 Method: Treating system as non-metallic,
         and number of  SD  steps               :          1
         and number of  CG  steps               :          4
  
 total energy / atom convergence tol.           : 0.1000E-08   eV
 max force / atom convergence tol.              : ignored
 convergence tolerance window                   :          3   cycles
 max. number of SCF cycles                      :        200
 periodic dipole correction                     : NONE

 *********************** Population Analysis Parameters ************************
  
 Population analysis with cutoff                :  3.000       A
 Population analysis output                     : summary and pdos components

 ************************ Magnetic Resonance Parameters ************************
  
 Magnetic Resonance Property                    : Chemical Shielding + EFG
 Position Operator Method                       : crystal
 max. number of MagRes CG steps                 :        250
 Sternheimer convergence tolerance              : 0.3675E-13
 Non-SCF max. number of iterations              :        240
 Non-SCF max. steps per iteration               :          5

 *******************************************************************************
  

                           -------------------------------
                                      Unit Cell
                           -------------------------------
        Real Lattice(A)                      Reciprocal Lattice(1/A)
     2.8112570     0.0000000     0.0000000        2.235009233   1.290383182   0.000000000
    -1.4056285     2.4346200     0.0000000        0.000000000   2.580766365   0.000000000
     0.0000000     0.0000000    13.9094564        0.000000000   0.000000000   0.451720406

                       Lattice parameters(A)       Cell Angles
                    a =      2.811257          alpha =   90.000000
                    b =      2.811257          beta  =   90.000000
                    c =     13.909456          gamma =  120.000000

                       Current cell volume =            95.201082       A**3
                                   density =             3.084198   AMU/A**3
                                           =             5.121432     g/cm^3

                           -------------------------------
                                     Cell Contents
                           -------------------------------
                         Total number of ions in cell =   12
                      Total number of species in cell =    3
                        Max number of any one species =    6

            xxxxxxxxxxxxxxxxxxxxxxxxxxxxxxxxxxxxxxxxxxxxxxxxxxxxxxxxxxxx
            x  Element    Atom        Fractional coordinates of atoms  x
            x            Number           u          v          w      x
            x----------------------------------------------------------x
            x  Li           1         0.000000   0.000000   0.000000   x 
            x  Li           2         0.666667   0.333333   0.333333   x 
            x  Li           3         0.333333   0.666667   0.666667   x 
            x  O            1         0.000000   0.000000   0.240007   x 
            x  O            2         0.666667   0.333333   0.093327   x 
            x  O            3         0.666667   0.333333   0.573340   x 
            x  O            4         0.333333   0.666667   0.426660   x 
            x  O            5         0.333333   0.666667   0.906673   x 
            x  O            6         0.000000   0.000000   0.759993   x 
            x  Co           1         0.333333   0.666667   0.166667   x 
            x  Co           2         1.000000   0.000000   0.500000   x 
            x  Co           3         0.666667   0.333333   0.833333   x 
            xxxxxxxxxxxxxxxxxxxxxxxxxxxxxxxxxxxxxxxxxxxxxxxxxxxxxxxxxxxx


                         No user defined ionic velocities

                           -------------------------------
                                   Details of Species
                           -------------------------------

                               Mass of species in AMU
                                    Li    6.9410000
                                    O   15.9994000
                                    Co   58.9332000

                          Electric Quadrupole Moment (Barn)
                                    Li   -0.0401000 Isotope   7
                                    O   -0.0255800 Isotope  17
                                    Co    0.4200000 Isotope  59


         Quantisation axis:    0.00000   0.00000   1.00000

         Units for Hubbard U values are eV
         xxxxxxxxxxxxxxxxxxxxxxxxxxxxxxxxxxxxxxxxxxxxxxxxxxxxxxxxxxxxxxxxxxxx
         |  Element     Atom     Hubbard U   values by orbital type         |
         |             Number      s          p          d          f       |
         |------------------------------------------------------------------|
         |Li            1         0.00000    0.00000    0.00000    0.00000  |
         |Li            2         0.00000    0.00000    0.00000    0.00000  |
         |Li            3         0.00000    0.00000    0.00000    0.00000  |
         |O             1         0.00000    0.00000    0.00000    0.00000  |
         |O             2         0.00000    0.00000    0.00000    0.00000  |
         |O             3         0.00000    0.00000    0.00000    0.00000  |
         |O             4         0.00000    0.00000    0.00000    0.00000  |
         |O             5         0.00000    0.00000    0.00000    0.00000  |
         |O             6         0.00000    0.00000    0.00000    0.00000  |
         |Co            1         0.00000    0.00000    8.00000    0.00000  |
         |Co            2         0.00000    0.00000    8.00000    0.00000  |
         |Co            3         0.00000    0.00000    8.00000    0.00000  |
         xxxxxxxxxxxxxxxxxxxxxxxxxxxxxxxxxxxxxxxxxxxxxxxxxxxxxxxxxxxxxxxxxxxx


                          Files used for pseudopotentials:
                                    Li 1|1.0|14|16|18|10U:20(qc=7)
                                    O 2|1.1|17|20|23|20:21(qc=8)
                                    Co 3|2.4|2.4|1.0|8|9|10|40:41:32U2U2(qc=5.5)

                           -------------------------------
                              k-Points For BZ Sampling
                           -------------------------------
                       MP grid size for SCF calculation is  3  3  1
                            with an offset of   0.000  0.000  0.000
                       Number of kpoints used =             5

                           -------------------------------
                               Symmetry and Constraints
                           -------------------------------

                      Cell is a supercell containing 3 primitive cells
                      Maximum deviation from symmetry =  0.00000         ANG

                      Number of symmetry operations   =           1
                      Number of ionic constraints     =           3
                      Point group of crystal =     1: C1, 1, 1
                      Space group of crystal =   166: R-3m, -R 3 2"

             Set iprint > 1 for details on symmetry rotations/translations

                         Centre of mass is constrained
             Set iprint > 2 for details of linear ionic constraints

                         Number of cell constraints= 0
                         Cell constraints are:  1 2 3 4 5 6

                         External pressure/stress (GPa)
                          0.00000   0.00000   0.00000
                                    0.00000   0.00000
                                              0.00000
 
+---------------- MEMORY AND SCRATCH DISK ESTIMATES PER PROCESS --------------+
|                                                     Memory          Disk    |
| Baseline code, static data and system overhead      256.0 MB         0.0 MB |
| BLAS internal memory storage                          0.0 MB         0.0 MB |
| Model and support data                              444.1 MB         0.0 MB |
| Electronic energy minimisation requirements          22.6 MB         0.0 MB |
| Force calculation requirements                       14.3 MB         0.0 MB |
|                                               ----------------------------- |
| Approx. total storage required per process          722.6 MB         0.0 MB |
|                                                                             |
| Requirements will fluctuate during execution and may exceed these estimates |
+-----------------------------------------------------------------------------+
Calculating approximate eigenstates for fixed initial Hamiltonian
Cut-off for approx. calculation is   89.988 eV
Improving approx. states at cut-off of  408.000 eV
Resetting cut-off to  816.000 eV
Improving states further at cut-off of  816.000 eV
Calculating total energy with cut-off of  816.000 eV.
 WARNING: Hubbard U run with fixed occupancies:  Results can be inaccurate or even wrong!

 Pseudo atomic calculation performed for Li 1s2 2s1

 Converged in 25 iterations to a total energy of -200.5056 eV

 Pseudo atomic calculation performed for O 2s2 2p4

 Converged in 38 iterations to a total energy of -432.3342 eV

 Pseudo atomic calculation performed for Co 3d7 4s2

 Converged in 53 iterations to a total energy of -1091.4019 eV
------------------------------------------------------------------------ <-- SCF
SCF loop      Energy                           Energy gain       Timer   <-- SCF
                                               per atom          (sec)   <-- SCF
------------------------------------------------------------------------ <-- SCF
Initial  -6.51113169E+003                                         14.06  <-- SCF
      1  -6.52868426E+003                    1.46271450E+000      18.76  <-- SCF
      2  -6.53119480E+003                    2.09211393E-001      23.20  <-- SCF
      3  -6.53308331E+003                    1.57375984E-001      27.63  <-- SCF
      4  -6.53478741E+003                    1.42008585E-001      32.09  <-- SCF
      5  -6.53583578E+003                    8.73643808E-002      36.49  <-- SCF
      6  -6.53629784E+003                    3.85044777E-002      40.88  <-- SCF
      7  -6.53636135E+003                    5.29276608E-003      45.29  <-- SCF
      8  -6.53637219E+003                    9.03256831E-004      49.69  <-- SCF
      9  -6.53637479E+003                    2.16480918E-004      54.10  <-- SCF
     10  -6.53637553E+003                    6.20503640E-005      58.61  <-- SCF
     11  -6.53637577E+003                    1.95555800E-005      63.03  <-- SCF
     12  -6.53637584E+003                    6.30591233E-006      67.42  <-- SCF
     13  -6.53637587E+003                    2.07199926E-006      71.78  <-- SCF
     14  -6.53637588E+003                    6.84454369E-007      76.21  <-- SCF
     15  -6.53637588E+003                    2.28188837E-007      80.64  <-- SCF
     16  -6.53637588E+003                    7.62383558E-008      85.11  <-- SCF
     17  -6.53637588E+003                    2.56565118E-008      89.54  <-- SCF
     18  -6.53637588E+003                    8.63165834E-009      93.99  <-- SCF
     19  -6.53637588E+003                    2.94263570E-009      98.50  <-- SCF
     20  -6.53637588E+003                    9.92135747E-010     103.00  <-- SCF
     21  -6.53637588E+003                    3.34364055E-010     107.79  <-- SCF
     22  -6.53637588E+003                    1.41853370E-010     112.61  <-- SCF
------------------------------------------------------------------------ <-- SCF
 

     Hubbard U occupation numbers
     ----------------------------
Species   Ion   l                     occupancies
==================================================================
  Co       1    2         0.91  0.91  1.99  1.99  1.99
  Co       2    2         0.91  0.91  1.99  1.99  1.99
  Co       3    2         0.91  0.91  1.99  1.99  1.99
==================================================================

Final energy =  -6536.375879768     eV
(energy not corrected for finite basis set)
 

Writing analysis data to licoo2.castep_bin

Writing model to licoo2.check

  =====================================================================
  +       Calculation of Nuclear Magnetic Resonance Parameters        +
  + ================================================================= +

  Starting Calculation of Electric Field Gradient Tensors         |<-- EFG
  +---------------- MEMORY AND SCRATCH DISK ESTIMATES PER PROCESS --------------+
  |                                                     Memory          Disk    |
  | Model and support data                              430.1 MB         0.0 MB |
  | NMR EFG calculation requirements                     24.1 MB         0.0 MB |
  |                                               ----------------------------- |
  | Approx. total storage required per process          454.2 MB         0.0 MB |
  |                                                                             |
  | Requirements will fluctuate during execution and may exceed these estimates |
  +-----------------------------------------------------------------------------+
 WARNING: Hubbard U run with fixed occupancies:  Results can be inaccurate or even wrong!

 Pseudo atomic calculation performed for Li 1s2 2s1

 Converged in 25 iterations to a total energy of -200.5056 eV

 Pseudo atomic calculation performed for O 2s2 2p4

 Converged in 38 iterations to a total energy of -432.3342 eV

 Pseudo atomic calculation performed for Co 3d7 4s2

 Converged in 53 iterations to a total energy of -1091.4019 eV
  Total Time for EFG Tensors                       4.67 sec       |<-- EFG

  Starting Calculation of Chemical Shielding Tensors              |<-- NMR
  +---------------- MEMORY AND SCRATCH DISK ESTIMATES PER PROCESS --------------+
  |                                                     Memory          Disk    |
  | Model and support data                              430.1 MB         0.0 MB |
  | NMR chemical shift calculation requirements          36.4 MB         0.0 MB |
  |                                               ----------------------------- |
  | Approx. total storage required per process          466.5 MB         0.0 MB |
  |                                                                             |
  | Requirements will fluctuate during execution and may exceed these estimates |
  +-----------------------------------------------------------------------------+
 WARNING: Hubbard U run with fixed occupancies:  Results can be inaccurate or even wrong!

 Pseudo atomic calculation performed for Li 1s2 2s1

 Converged in 25 iterations to a total energy of -200.5056 eV

 Pseudo atomic calculation performed for O 2s2 2p4

 Converged in 38 iterations to a total energy of -432.3342 eV

 Pseudo atomic calculation performed for Co 3d7 4s2

 Converged in 53 iterations to a total energy of -1091.4019 eV
  Starting k-point:   1 of   1                                    |<-- NMR
  Total Time for step 1 of 6:                     23.02 sec       |<-- NMR
  Total Time for step 2 of 6:                     23.71 sec       |<-- NMR
  Total Time for step 3 of 6:                     23.79 sec       |<-- NMR
  Total Time for step 4 of 6:                     42.69 sec       |<-- NMR
  Total Time for step 5 of 6:                     43.92 sec       |<-- NMR
  Total Time for step 6 of 6:                     40.68 sec       |<-- NMR
  Total Time for Chemical Shielding Tensors      243.53 sec       |<-- NMR

  ===============================================================================
  |                Chemical Shielding and Electric Field Gradient Tensors       |
  |-----------------------------------------------------------------------------|
  |     Nucleus                       Shielding tensor             EFG Tensor   |
  |    Species            Ion    Iso(ppm)   Aniso(ppm)  Asym    Cq(MHz)    Eta  |
  |    Li                 1       87.06      -3.37      0.14   4.400E-01   0.00 |
  |    Li                 2       87.06      -3.37      0.14   4.400E-01   0.00 |
  |    Li                 3       87.06      -3.37      0.14   4.400E-01   0.00 |
  |    O                  1      230.66     -38.51      0.01   1.385E+00   0.00 |
  |    O                  2      230.68     -38.51      0.01   1.385E+00   0.00 |
  |    O                  3      230.67     -38.49      0.01   1.385E+00   0.00 |
  |    O                  4      230.68     -38.53      0.01   1.385E+00   0.00 |
  |    O                  5      230.66     -38.50      0.01   1.385E+00   0.00 |
  |    O                  6      230.68     -38.53      0.01   1.385E+00   0.00 |
  |    Co                 1    -4807.11    -522.14      0.00  -3.353E+01   0.00 |
  |    Co                 2    -4807.12    -522.17      0.00  -3.353E+01   0.00 |
  |    Co                 3    -4807.09    -522.18      0.00  -3.353E+01   0.00 |
  ===============================================================================
 WARNING: Hubbard U run with fixed occupancies:  Results can be inaccurate or even wrong!

 Pseudo atomic calculation performed for Li 1s2 2s1

 Converged in 25 iterations to a total energy of -200.5056 eV

 Pseudo atomic calculation performed for O 2s2 2p4

 Converged in 38 iterations to a total energy of -432.3342 eV

 Pseudo atomic calculation performed for Co 3d7 4s2

 Converged in 53 iterations to a total energy of -1091.4019 eV

 ************************** Forces **************************
 *                                                          *
 *               Cartesian components (eV/A)                *
 * -------------------------------------------------------- *
 *                         x            y            z      *
 *                                                          *
 * Li              1      0.00000     -0.00000     -0.00000 *
 * Li              2      0.00000      0.00000      0.00000 *
 * Li              3      0.00000     -0.00000     -0.00000 *
 * O               1     -0.00066      0.00038      0.43829 *
 * O               2      0.00066     -0.00038     -0.43829 *
 * O               3     -0.00064      0.00043      0.43829 *
 * O               4      0.00064     -0.00043     -0.43829 *
 * O               5     -0.00065      0.00040      0.43829 *
 * O               6      0.00065     -0.00040     -0.43829 *
 * Co              1      0.00000     -0.00000     -0.00000 *
 * Co              2     -0.00000     -0.00000     -0.00000 *
 * Co              3     -0.00000      0.00000      0.00000 *
 *                                                          *
 ************************************************************

 Pseudo atomic calculation performed for Li 1s2 2s1

 Converged in 25 iterations to a total energy of -200.5056 eV

 Pseudo atomic calculation performed for O 2s2 2p4

 Converged in 38 iterations to a total energy of -432.3342 eV

 Pseudo atomic calculation performed for Co 3d7 4s2

 Converged in 53 iterations to a total energy of -1091.4019 eV
Charge spilling parameter for spin component 1 = 0.11%

            Orbital Populations       
     Ion    Atom   Orbital             Charge
  -------------------------------------------
     Li     1      S                    2.008
     Li     1      S                   -0.025
     Li     1      Px                   0.154
     Li     1      Py                   0.154
     Li     1      Pz                   0.114
     Li     2      S                    2.008
     Li     2      S                   -0.025
     Li     2      Px                   0.154
[...]
   |         loc     3    0.000   2.409     pn      0         |                
   |                                                          |                
   | Augmentation charge Rinner = 1.004                       |                
   | Partial core correction Rc = 1.004                       |                
   ------------------------------------------------------------                
   | "3|2.4|2.4|1.0|8|9|10|40:41:32U2U2(qc=5.5)"              |                
   ------------------------------------------------------------                
   |      Author: Chris J. Pickard, Cambridge University      |                
   ============================================================                

 Pseudo atomic calculation performed for Li 1s2 2s1

 Converged in 25 iterations to a total energy of -200.5056 eV

 Pseudo atomic calculation performed for O 2s2 2p4

 Converged in 38 iterations to a total energy of -432.3342 eV

 Pseudo atomic calculation performed for Co 3d7 4s2

 Converged in 53 iterations to a total energy of -1091.4019 eV
 Calculation parallelised over 5 processes.
 Data is distributed by k-point(5-way)

 ************************************ Title ************************************
 

 ***************************** General Parameters ******************************
  
 output verbosity                               : normal  (1)
 write checkpoint data to                       : licoo2.check
 type of calculation                            : Magnetic Resonance
 stress calculation                             : off
 density difference calculation                 : off
 electron localisation func (ELF) calculation   : off
 Hirshfeld analysis                             : off
 polarisation (Berry phase) analysis            : off
 molecular orbital projected DOS                : off
 deltaSCF calculation                           : off
 unlimited duration calculation
 timing information                             : on
 memory usage estimate                          : on
 write extra output files                       : on
 write final potential to formatted file        : off
 write final density to formatted file          : off
 write BibTeX reference list                    : on
 write OTFG pseudopotential files               : on
 write electrostatic potential file             : on
 write bands file                               : on
 checkpoint writing                             : both castep_bin and check files
  
 output         length unit                     : A
 output           mass unit                     : amu
 output           time unit                     : ps
 output         charge unit                     : e
 output           spin unit                     : hbar/2
 output         energy unit                     : eV
 output          force unit                     : eV/A
 output       velocity unit                     : A/ps
 output       pressure unit                     : GPa
 output     inv_length unit                     : 1/A
 output      frequency unit                     : cm-1
 output force constant unit                     : eV/A**2
 output         volume unit                     : A**3
 output   IR intensity unit                     : (D/A)**2/amu
 output         dipole unit                     : D
 output         efield unit                     : eV/A/e
 output        entropy unit                     : J/mol/K
 output    efield chi2 unit                     : pm/V
  
 wavefunctions paging                           : none
 random number generator seed                   :  165541536
 data distribution                              : optimal for this architecture
 optimization strategy                          : maximize speed(+++)

 *********************** Exchange-Correlation Parameters ***********************
  
 using functional                               : Perdew Burke Ernzerhof
 relativistic treatment                         : Koelling-Harmon
 DFT+D: Semi-empirical dispersion correction    : off

 ************************* Pseudopotential Parameters **************************
  
 pseudopotential representation                 : reciprocal space
 <beta|phi> representation                      : reciprocal space
 spin-orbit coupling                            : off

 **************************** Basis Set Parameters *****************************
  
 plane wave basis set cut-off                   :   816.0000   eV
 size of standard grid                          :     2.0000
 size of   fine   gmax                          :    29.2694   1/A
 finite basis set correction                    : none

 **************************** Electronic Parameters ****************************
  
 number of  electrons                           :  72.00    
 net charge of system                           :  0.000    
 treating system as non-spin-polarized
 number of bands                                :         36

 ********************* Electronic Minimization Parameters **********************
  
 Method: Treating system as non-metallic,
         and number of  SD  steps               :          1
         and number of  CG  steps               :          4
  
 total energy / atom convergence tol.           : 0.1000E-08   eV
 max force / atom convergence tol.              : ignored
 convergence tolerance window                   :          3   cycles
 max. number of SCF cycles                      :        200
 periodic dipole correction                     : NONE

 *********************** Population Analysis Parameters ************************
  
 Population analysis with cutoff                :  3.000       A
 Population analysis output                     : summary and pdos components

 ************************ Magnetic Resonance Parameters ************************
  
 Magnetic Resonance Property                    : Chemical Shielding + EFG
 Position Operator Method                       : crystal
 max. number of MagRes CG steps                 :        250
 Sternheimer convergence tolerance              : 0.3675E-13
 Non-SCF max. number of iterations              :        240
 Non-SCF max. steps per iteration               :          5

 *******************************************************************************
  

                           -------------------------------
                                      Unit Cell
                           -------------------------------
        Real Lattice(A)                      Reciprocal Lattice(1/A)
     2.8112570     0.0000000     0.0000000        2.235009233   1.290383182   0.000000000
    -1.4056285     2.4346200     0.0000000        0.000000000   2.580766365   0.000000000
     0.0000000     0.0000000    13.9094564        0.000000000   0.000000000   0.451720406

                       Lattice parameters(A)       Cell Angles
                    a =      2.811257          alpha =   90.000000
                    b =      2.811257          beta  =   90.000000
                    c =     13.909456          gamma =  120.000000

                       Current cell volume =            95.201082       A**3
                                   density =             3.084198   AMU/A**3
                                           =             5.121432     g/cm^3

                           -------------------------------
                                     Cell Contents
                           -------------------------------
                         Total number of ions in cell =   12
                      Total number of species in cell =    3
                        Max number of any one species =    6

            xxxxxxxxxxxxxxxxxxxxxxxxxxxxxxxxxxxxxxxxxxxxxxxxxxxxxxxxxxxx
            x  Element    Atom        Fractional coordinates of atoms  x
            x            Number           u          v          w      x
            x----------------------------------------------------------x
            x  Li           1         0.000000   0.000000   0.000000   x 
            x  Li           2         0.666667   0.333333   0.333333   x 
            x  Li           3         0.333333   0.666667   0.666667   x 
            x  O            1         0.000000   0.000000   0.240007   x 
            x  O            2         0.666667   0.333333   0.093327   x 
            x  O            3         0.666667   0.333333   0.573340   x 
            x  O            4         0.333333   0.666667   0.426660   x 
            x  O            5         0.333333   0.666667   0.906673   x 
            x  O            6         0.000000   0.000000   0.759993   x 
            x  Co           1         0.333333   0.666667   0.166667   x 
            x  Co           2         1.000000   0.000000   0.500000   x 
            x  Co           3         0.666667   0.333333   0.833333   x 
            xxxxxxxxxxxxxxxxxxxxxxxxxxxxxxxxxxxxxxxxxxxxxxxxxxxxxxxxxxxx


                         No user defined ionic velocities

                           -------------------------------
                                   Details of Species
                           -------------------------------

                               Mass of species in AMU
                                    Li    6.9410000
                                    O   15.9994000
                                    Co   58.9332000

                          Electric Quadrupole Moment (Barn)
                                    Li   -0.0401000 Isotope   7
                                    O   -0.0255800 Isotope  17
                                    Co    0.4200000 Isotope  59


         Quantisation axis:    0.00000   0.00000   1.00000

         Units for Hubbard U values are eV
         xxxxxxxxxxxxxxxxxxxxxxxxxxxxxxxxxxxxxxxxxxxxxxxxxxxxxxxxxxxxxxxxxxxx
         |  Element     Atom     Hubbard U   values by orbital type         |
         |             Number      s          p          d          f       |
         |------------------------------------------------------------------|
         |Li            1         0.00000    0.00000    0.00000    0.00000  |
         |Li            2         0.00000    0.00000    0.00000    0.00000  |
         |Li            3         0.00000    0.00000    0.00000    0.00000  |
         |O             1         0.00000    0.00000    0.00000    0.00000  |
         |O             2         0.00000    0.00000    0.00000    0.00000  |
         |O             3         0.00000    0.00000    0.00000    0.00000  |
         |O             4         0.00000    0.00000    0.00000    0.00000  |
         |O             5         0.00000    0.00000    0.00000    0.00000  |
         |O             6         0.00000    0.00000    0.00000    0.00000  |
         |Co            1         0.00000    0.00000    8.00000    0.00000  |
         |Co            2         0.00000    0.00000    8.00000    0.00000  |
         |Co            3         0.00000    0.00000    8.00000    0.00000  |
         xxxxxxxxxxxxxxxxxxxxxxxxxxxxxxxxxxxxxxxxxxxxxxxxxxxxxxxxxxxxxxxxxxxx


                          Files used for pseudopotentials:
                                    Li 1|1.0|14|16|18|10U:20(qc=7)
                                    O 2|1.1|17|20|23|20:21(qc=8)
                                    Co 3|2.4|2.4|1.0|8|9|10|40:41:32U2U2(qc=5.5)

                           -------------------------------
                              k-Points For BZ Sampling
                           -------------------------------
                       MP grid size for SCF calculation is  3  3  1
                            with an offset of   0.000  0.000  0.000
                       Number of kpoints used =             5

                           -------------------------------
                               Symmetry and Constraints
                           -------------------------------

                      Cell is a supercell containing 3 primitive cells
                      Maximum deviation from symmetry =  0.00000         ANG

                      Number of symmetry operations   =           1
                      Number of ionic constraints     =           3
                      Point group of crystal =     1: C1, 1, 1
                      Space group of crystal =   166: R-3m, -R 3 2"

             Set iprint > 1 for details on symmetry rotations/translations

                         Centre of mass is constrained
             Set iprint > 2 for details of linear ionic constraints

                         Number of cell constraints= 0
                         Cell constraints are:  1 2 3 4 5 6

                         External pressure/stress (GPa)
                          0.00000   0.00000   0.00000
                                    0.00000   0.00000
                                              0.00000
 
+---------------- MEMORY AND SCRATCH DISK ESTIMATES PER PROCESS --------------+
|                                                     Memory          Disk    |
| Baseline code, static data and system overhead      256.0 MB         0.0 MB |
| BLAS internal memory storage                          0.0 MB         0.0 MB |
| Model and support data                              444.1 MB         0.0 MB |
| Electronic energy minimisation requirements          22.6 MB         0.0 MB |
| Force calculation requirements                       14.3 MB         0.0 MB |
|                                               ----------------------------- |
| Approx. total storage required per process          722.6 MB         0.0 MB |
|                                                                             |
| Requirements will fluctuate during execution and may exceed these estimates |
+-----------------------------------------------------------------------------+
Calculating approximate eigenstates for fixed initial Hamiltonian
Cut-off for approx. calculation is   89.988 eV
Improving approx. states at cut-off of  408.000 eV
Resetting cut-off to  816.000 eV
Improving states further at cut-off of  816.000 eV
Calculating total energy with cut-off of  816.000 eV.
 WARNING: Hubbard U run with fixed occupancies:  Results can be inaccurate or even wrong!

 Pseudo atomic calculation performed for Li 1s2 2s1

 Converged in 25 iterations to a total energy of -200.5056 eV

 Pseudo atomic calculation performed for O 2s2 2p4

 Converged in 38 iterations to a total energy of -432.3342 eV

 Pseudo atomic calculation performed for Co 3d7 4s2

 Converged in 53 iterations to a total energy of -1091.4019 eV
------------------------------------------------------------------------ <-- SCF
SCF loop      Energy                           Energy gain       Timer   <-- SCF
                                               per atom          (sec)   <-- SCF
------------------------------------------------------------------------ <-- SCF
Initial  -6.51081969E+003                                         29.19  <-- SCF
      1  -6.52817832E+003                    1.44655266E+000      39.00  <-- SCF
      2  -6.53070129E+003                    2.10247069E-001      49.62  <-- SCF
      3  -6.53248957E+003                    1.49023496E-001      61.10  <-- SCF
      4  -6.53428352E+003                    1.49496382E-001      71.61  <-- SCF
      5  -6.53536698E+003                    9.02879555E-002      82.51  <-- SCF
      6  -6.53610064E+003                    6.11380070E-002      93.44  <-- SCF
      7  -6.53631803E+003                    1.81160452E-002     105.51  <-- SCF
      8  -6.53636238E+003                    3.69550212E-003     117.28  <-- SCF
      9  -6.53637200E+003                    8.02367195E-004     127.68  <-- SCF
     10  -6.53637462E+003                    2.17823131E-004     138.02  <-- SCF
     11  -6.53637544E+003                    6.87055262E-005     145.50  <-- SCF
     12  -6.53637573E+003                    2.36462399E-005     151.20  <-- SCF
     13  -6.53637583E+003                    8.30181026E-006     156.33  <-- SCF
     14  -6.53637586E+003                    2.93505263E-006     161.28  <-- SCF
     15  -6.53637587E+003                    1.04118543E-006     166.57  <-- SCF
     16  -6.53637588E+003                    3.69654608E-007     172.01  <-- SCF
     17  -6.53637588E+003                    1.31557110E-007     177.38  <-- SCF
     18  -6.53637588E+003                    4.68283046E-008     182.66  <-- SCF
     19  -6.53637588E+003                    1.67250988E-008     188.37  <-- SCF
     20  -6.53637588E+003                    5.96170851E-009     194.38  <-- SCF
     21  -6.53637588E+003                    2.13630789E-009     200.10  <-- SCF
     22  -6.53637588E+003                    7.71460627E-010     206.02  <-- SCF
     23  -6.53637588E+003                    2.62889549E-010     211.20  <-- SCF
     24  -6.53637588E+003                    1.03763710E-010     216.69  <-- SCF
------------------------------------------------------------------------ <-- SCF
 

     Hubbard U occupation numbers
     ----------------------------
Species   Ion   l                     occupancies
==================================================================
  Co       1    2         0.91  0.91  1.99  1.99  1.99
  Co       2    2         0.91  0.91  1.99  1.99  1.99
  Co       3    2         0.91  0.91  1.99  1.99  1.99
==================================================================

Final energy =  -6536.375879768     eV
(energy not corrected for finite basis set)
 

Writing analysis data to licoo2.castep_bin

Writing model to licoo2.check

  =====================================================================
  +       Calculation of Nuclear Magnetic Resonance Parameters        +
  + ================================================================= +

  Starting Calculation of Electric Field Gradient Tensors         |<-- EFG
  +---------------- MEMORY AND SCRATCH DISK ESTIMATES PER PROCESS --------------+
  |                                                     Memory          Disk    |
  | Model and support data                              430.1 MB         0.0 MB |
  | NMR EFG calculation requirements                     24.1 MB         0.0 MB |
  |                                               ----------------------------- |
  | Approx. total storage required per process          454.2 MB         0.0 MB |
  |                                                                             |
  | Requirements will fluctuate during execution and may exceed these estimates |
  +-----------------------------------------------------------------------------+
 WARNING: Hubbard U run with fixed occupancies:  Results can be inaccurate or even wrong!

 Pseudo atomic calculation performed for Li 1s2 2s1

 Converged in 25 iterations to a total energy of -200.5056 eV

 Pseudo atomic calculation performed for O 2s2 2p4

 Converged in 38 iterations to a total energy of -432.3342 eV

 Pseudo atomic calculation performed for Co 3d7 4s2

 Converged in 53 iterations to a total energy of -1091.4019 eV
  Total Time for EFG Tensors                       5.22 sec       |<-- EFG

  Starting Calculation of Chemical Shielding Tensors              |<-- NMR
  +---------------- MEMORY AND SCRATCH DISK ESTIMATES PER PROCESS --------------+
  |                                                     Memory          Disk    |
  | Model and support data                              430.1 MB         0.0 MB |
  | NMR chemical shift calculation requirements          36.4 MB         0.0 MB |
  |                                               ----------------------------- |
  | Approx. total storage required per process          466.5 MB         0.0 MB |
  |                                                                             |
  | Requirements will fluctuate during execution and may exceed these estimates |
  +-----------------------------------------------------------------------------+
  Starting k-point:   1 of   1                                    |<-- NMR
