
     Program PWSCF v.7.2 starts on  5Jun2024 at 18:56:17 

     This program is part of the open-source Quantum ESPRESSO suite
     for quantum simulation of materials; please cite
         "P. Giannozzi et al., J. Phys.:Condens. Matter 21 395502 (2009);
         "P. Giannozzi et al., J. Phys.:Condens. Matter 29 465901 (2017);
         "P. Giannozzi et al., J. Chem. Phys. 152 154105 (2020);
          URL http://www.quantum-espresso.org", 
     in publications or presentations arising from this work. More details at
     http://www.quantum-espresso.org/quote

     Parallel version (MPI), running on     6 processors

     MPI processes distributed on     1 nodes
     6137 MiB available memory on the printing compute node when the environment starts

     Waiting for input...
     Reading input from standard input

     Current dimensions of program PWSCF are:
     Max number of different atomic species (ntypx) = 10
     Max number of k-points (npk) =  40000
     Max angular momentum in pseudopotentials (lmaxx) =  4
     Message from routine setup:
     the system is metallic, specify occupations

     R & G space division:  proc/nbgrp/npool/nimage =       6
     Subspace diagonalization in iterative solution of the eigenvalue problem:
     a serial algorithm will be used


     Parallelization info
     --------------------
     sticks:   dense  smooth     PW     G-vecs:    dense   smooth      PW
     Min        2123    2123    529               180125   180125   22507
     Max        2125    2125    531               180126   180126   22508
     Sum       12745   12745   3181              1080751  1080751  135043

     Using Slab Decomposition



     bravais-lattice index     =            1
     lattice parameter (alat)  =      20.0000  a.u.
     unit-cell volume          =    8000.0000 (a.u.)^3
     number of atoms/cell      =            3
     number of atomic types    =            2
     number of electrons       =         7.00 (up:   4.00, down:   3.00)
     number of Kohn-Sham states=            4
     kinetic-energy cutoff     =     100.0000  Ry
     charge density cutoff     =     400.0000  Ry
     scf convergence threshold =      1.0E-08
     mixing beta               =       0.7000
     number of iterations used =            8  plain     mixing
     Exchange-correlation=  SLA  PW   PBX  PBC
                           (   1   4   3   4   0   0   0)

     celldm(1)=  20.000000  celldm(2)=   0.000000  celldm(3)=   0.000000
     celldm(4)=   0.000000  celldm(5)=   0.000000  celldm(6)=   0.000000

     crystal axes: (cart. coord. in units of alat)
               a(1) = (   1.000000   0.000000   0.000000 )  
               a(2) = (   0.000000   1.000000   0.000000 )  
               a(3) = (   0.000000   0.000000   1.000000 )  

     reciprocal axes: (cart. coord. in units 2 pi/alat)
               b(1) = (  1.000000  0.000000  0.000000 )  
               b(2) = (  0.000000  1.000000  0.000000 )  
               b(3) = (  0.000000  0.000000  1.000000 )  


     PseudoPot. # 1 for O  read from file:
     ./pseudo/O.pbe-tm-gipaw.UPF
     MD5 check sum: 12b6f10dd62b8d732352127d12073df4
     Pseudo is Norm-conserving, Zval =  6.0
     Generated by new atomic code, or converted to UPF format
     Using radial grid of 1095 points,  1 beta functions with: 
                l(1) =   0

     PseudoPot. # 2 for H  read from file:
     ./pseudo/H.pbe-tm-gipaw.UPF
     MD5 check sum: 39a9a69d8410949353303b9fcad9eee2
     Pseudo is Norm-conserving, Zval =  1.0
     Generated by new atomic code, or converted to UPF format
     Using radial grid of  929 points,  0 beta functions with: 

     atomic species   valence    mass     pseudopotential
        O              6.00    16.00000     O ( 1.00)
        H              1.00     1.00000     H ( 1.00)

     Starting magnetic structure 
     atomic species   magnetization
        O            0.000
        H            0.000

     No symmetry found


                                    s                        frac. trans.

      isym =  1     identity                                     

 cryst.   s( 1) = (     1          0          0      )
                  (     0          1          0      )
                  (     0          0          1      )

 cart.    s( 1) = (  1.0000000  0.0000000  0.0000000 )
                  (  0.0000000  1.0000000  0.0000000 )
                  (  0.0000000  0.0000000  1.0000000 )


     point group C_1 (1)    
     there are  1 classes
     the character table:

       E    
A      1.00

     the symmetry operations in each class and the name of the first element:

     E        1
          identity                                               

   Cartesian axes

     site n.     atom                  positions (alat units)
         1           O   tau(   1) = (   0.4724315   0.4724315   0.4724315  )
         2           H   tau(   2) = (   0.5499883   0.5262346   0.4724315  )
         3           H   tau(   3) = (   0.3948748   0.5262346   0.4724315  )

   Crystallographic axes

     site n.     atom                  positions (cryst. coord.)
         1           O   tau(   1) = (  0.4724315  0.4724315  0.4724315  )
         2           H   tau(   2) = (  0.5499883  0.5262346  0.4724315  )
         3           H   tau(   3) = (  0.3948748  0.5262346  0.4724315  )

     number of k points=     1
                       cart. coord. in units 2pi/alat
        k(    1) = (   0.0000000   0.0000000   0.0000000), wk =   1.0000000

                       cryst. coord.
        k(    1) = (   0.0000000   0.0000000   0.0000000), wk =   1.0000000

     Dense  grid:  1080751 G-vectors     FFT dimensions: ( 128, 128, 128)

     Dynamical RAM for                 wfc:       1.37 MB

     Dynamical RAM for     wfc (w. buffer):       4.12 MB

     Dynamical RAM for           str. fact:       5.50 MB

     Dynamical RAM for           local pot:       0.00 MB

     Dynamical RAM for          nlocal pot:       0.34 MB

     Dynamical RAM for                qrad:       0.03 MB

     Dynamical RAM for          rho,v,vnew:      32.99 MB

     Dynamical RAM for               rhoin:      11.00 MB

     Dynamical RAM for            rho*nmix:      87.95 MB

     Dynamical RAM for           G-vectors:      11.68 MB

     Dynamical RAM for          h,s,v(r/c):       0.00 MB

     Dynamical RAM for          <psi|beta>:       0.00 MB

     Dynamical RAM for                 psi:       2.75 MB

     Dynamical RAM for                hpsi:       2.75 MB

     Dynamical RAM for      wfcinit/wfcrot:       4.12 MB

     Estimated static dynamical RAM per process >      90.41 MB

     Estimated max dynamical RAM per process >     183.86 MB

     Estimated total dynamical RAM >       1.08 GB
     Generating pointlists ...
     new r_m :   0.0389 (alat units)  0.7787 (a.u.) for type    1
     new r_m :   0.0389 (alat units)  0.7787 (a.u.) for type    2

     Initial potential from superposition of free atoms

     starting charge       5.2000, renormalised to       7.0000

     negative rho (up, down):  2.099E-05 2.099E-05
     Starting wfcs are    6 randomized atomic wfcs

     total cpu time spent up to now is        1.8 secs

     Self-consistent Calculation

     iteration #  1     ecut=   100.00 Ry     beta= 0.70
     Davidson diagonalization with overlap

---- Real-time Memory Report at c_bands before calling an iterative solver
           158 MiB given to the printing process from OS
             0 MiB allocation reported by mallinfo(arena+hblkhd)
          5686 MiB available memory on the node where the printing process lives
------------------
     ethr =  1.00E-04,  avg # of iterations =  5.0

     negative rho (up, down):  3.177E-06 4.121E-06

     total cpu time spent up to now is        4.1 secs

     total energy              =     -32.42351864 Ry
     estimated scf accuracy    <       2.83294485 Ry

     total magnetization       =     1.00 Bohr mag/cell
     absolute magnetization    =     1.00 Bohr mag/cell

     iteration #  2     ecut=   100.00 Ry     beta= 0.70
     Davidson diagonalization with overlap

---- Real-time Memory Report at c_bands before calling an iterative solver
           220 MiB given to the printing process from OS
             0 MiB allocation reported by mallinfo(arena+hblkhd)
          5011 MiB available memory on the node where the printing process lives
------------------
     ethr =  1.00E-02,  avg # of iterations =  3.0

     negative rho (up, down):  1.428E-06 1.921E-06

     total cpu time spent up to now is        6.1 secs

     total energy              =     -33.43158276 Ry
     estimated scf accuracy    <       1.07383169 Ry

     total magnetization       =     1.00 Bohr mag/cell
     absolute magnetization    =     1.02 Bohr mag/cell

     iteration #  3     ecut=   100.00 Ry     beta= 0.70
     Davidson diagonalization with overlap

---- Real-time Memory Report at c_bands before calling an iterative solver
           231 MiB given to the printing process from OS
             0 MiB allocation reported by mallinfo(arena+hblkhd)
          4945 MiB available memory on the node where the printing process lives
------------------
     ethr =  1.00E-02,  avg # of iterations =  2.0

     negative rho (up, down):  9.842E-08 1.522E-07

     total cpu time spent up to now is        7.9 secs

     total energy              =     -33.56361984 Ry
     estimated scf accuracy    <       0.03448250 Ry

     total magnetization       =     1.00 Bohr mag/cell
     absolute magnetization    =     1.03 Bohr mag/cell

     iteration #  4     ecut=   100.00 Ry     beta= 0.70
     Davidson diagonalization with overlap

---- Real-time Memory Report at c_bands before calling an iterative solver
           242 MiB given to the printing process from OS
             0 MiB allocation reported by mallinfo(arena+hblkhd)
          4879 MiB available memory on the node where the printing process lives
------------------
     ethr =  4.93E-04,  avg # of iterations =  3.0

     negative rho (up, down):  4.722E-08 5.393E-09

     total cpu time spent up to now is        9.8 secs

     total energy              =     -33.57837347 Ry
     estimated scf accuracy    <       0.00737255 Ry

     total magnetization       =     1.00 Bohr mag/cell
     absolute magnetization    =     1.05 Bohr mag/cell

     iteration #  5     ecut=   100.00 Ry     beta= 0.70
     Davidson diagonalization with overlap

---- Real-time Memory Report at c_bands before calling an iterative solver
           253 MiB given to the printing process from OS
             0 MiB allocation reported by mallinfo(arena+hblkhd)
          4813 MiB available memory on the node where the printing process lives
------------------
     ethr =  1.05E-04,  avg # of iterations =  1.5

     total cpu time spent up to now is       11.6 secs

     total energy              =     -33.57909483 Ry
     estimated scf accuracy    <       0.00039860 Ry

     total magnetization       =     1.00 Bohr mag/cell
     absolute magnetization    =     1.07 Bohr mag/cell

     iteration #  6     ecut=   100.00 Ry     beta= 0.70
     Davidson diagonalization with overlap

---- Real-time Memory Report at c_bands before calling an iterative solver
           264 MiB given to the printing process from OS
             0 MiB allocation reported by mallinfo(arena+hblkhd)
          4736 MiB available memory on the node where the printing process lives
------------------
     ethr =  5.69E-06,  avg # of iterations =  3.0

     total cpu time spent up to now is       13.6 secs

     total energy              =     -33.57928832 Ry
     estimated scf accuracy    <       0.00005001 Ry

     total magnetization       =     1.00 Bohr mag/cell
     absolute magnetization    =     1.07 Bohr mag/cell

     iteration #  7     ecut=   100.00 Ry     beta= 0.70
     Davidson diagonalization with overlap

---- Real-time Memory Report at c_bands before calling an iterative solver
           275 MiB given to the printing process from OS
             0 MiB allocation reported by mallinfo(arena+hblkhd)
          4667 MiB available memory on the node where the printing process lives
------------------
     ethr =  7.14E-07,  avg # of iterations =  2.0

     total cpu time spent up to now is       15.4 secs

     total energy              =     -33.57929441 Ry
     estimated scf accuracy    <       0.00000186 Ry

     total magnetization       =     1.00 Bohr mag/cell
     absolute magnetization    =     1.07 Bohr mag/cell

     iteration #  8     ecut=   100.00 Ry     beta= 0.70
     Davidson diagonalization with overlap

---- Real-time Memory Report at c_bands before calling an iterative solver
           286 MiB given to the printing process from OS
             0 MiB allocation reported by mallinfo(arena+hblkhd)
          4601 MiB available memory on the node where the printing process lives
------------------
     ethr =  2.66E-08,  avg # of iterations =  3.0

     total cpu time spent up to now is       17.4 secs

     total energy              =     -33.57929556 Ry
     estimated scf accuracy    <       0.00000054 Ry

     total magnetization       =     1.00 Bohr mag/cell
     absolute magnetization    =     1.07 Bohr mag/cell

     iteration #  9     ecut=   100.00 Ry     beta= 0.70
     Davidson diagonalization with overlap

---- Real-time Memory Report at c_bands before calling an iterative solver
           297 MiB given to the printing process from OS
             0 MiB allocation reported by mallinfo(arena+hblkhd)
          4551 MiB available memory on the node where the printing process lives
------------------
     ethr =  7.73E-09,  avg # of iterations =  1.5

     total cpu time spent up to now is       19.3 secs

     total energy              =     -33.57929563 Ry
     estimated scf accuracy    <       0.00000001 Ry

     total magnetization       =     1.00 Bohr mag/cell
     absolute magnetization    =     1.07 Bohr mag/cell

     iteration # 10     ecut=   100.00 Ry     beta= 0.70
     Davidson diagonalization with overlap

---- Real-time Memory Report at c_bands before calling an iterative solver
           308 MiB given to the printing process from OS
             0 MiB allocation reported by mallinfo(arena+hblkhd)
          4487 MiB available memory on the node where the printing process lives
------------------
     ethr =  1.97E-10,  avg # of iterations =  3.0

     total cpu time spent up to now is       21.4 secs

     total energy              =     -33.57929564 Ry
     estimated scf accuracy    <       0.00000002 Ry

     total magnetization       =     1.00 Bohr mag/cell
     absolute magnetization    =     1.07 Bohr mag/cell

     iteration # 11     ecut=   100.00 Ry     beta= 0.70
     Davidson diagonalization with overlap

---- Real-time Memory Report at c_bands before calling an iterative solver
           308 MiB given to the printing process from OS
             0 MiB allocation reported by mallinfo(arena+hblkhd)
          4470 MiB available memory on the node where the printing process lives
------------------
     ethr =  1.97E-10,  avg # of iterations =  2.0

     Magnetic moment per site  (integrated on atomic sphere of radius R)
     atom   1 (R=0.039)  charge=  2.0270  magn=  0.3789
     atom   2 (R=0.039)  charge=  0.3719  magn= -0.0068
     atom   3 (R=0.039)  charge=  0.3718  magn= -0.0068

     total cpu time spent up to now is       23.0 secs

     End of self-consistent calculation

 ------ SPIN UP ------------


          k = 0.0000 0.0000 0.0000 (135043 PWs)   bands (ev):

   -34.4540 -21.4989 -18.1860 -17.5012

     occupation numbers 
     1.0000   1.0000   1.0000   1.0000

 ------ SPIN DOWN ----------


          k = 0.0000 0.0000 0.0000 (135043 PWs)   bands (ev):

   -32.7041 -20.9902 -16.8063 -13.7153

     occupation numbers 
     1.0000   1.0000   1.0000   0.0000

     highest occupied, lowest unoccupied level (ev):   -16.8063  -13.7153

!    total energy              =     -33.57929565 Ry
     estimated scf accuracy    <          1.9E-09 Ry

     The total energy is the sum of the following terms:
     one-electron contribution =     -58.41755365 Ry
     hartree contribution      =      28.24415191 Ry
     xc contribution           =      -7.71177456 Ry
     ewald contribution        =       4.30588065 Ry

     total magnetization       =     1.00 Bohr mag/cell
     absolute magnetization    =     1.07 Bohr mag/cell

     convergence has been achieved in  11 iterations

     Writing all to output data dir ./scratch/h2o+.save/

     init_run     :      1.54s CPU      1.75s WALL (       1 calls)
     electrons    :     20.48s CPU     21.27s WALL (       1 calls)

     Called by init_run:
     wfcinit      :      0.31s CPU      0.33s WALL (       1 calls)
     wfcinit:atom :      0.01s CPU      0.01s WALL (       2 calls)
     wfcinit:wfcr :      0.29s CPU      0.31s WALL (       2 calls)
     potinit      :      0.78s CPU      0.93s WALL (       1 calls)
     hinit0       :      0.10s CPU      0.12s WALL (       1 calls)

     Called by electrons:
     c_bands      :      7.20s CPU      7.49s WALL (      11 calls)
     sum_band     :      2.70s CPU      2.80s WALL (      11 calls)
     v_of_rho     :      8.40s CPU      8.73s WALL (      12 calls)
     v_h          :      0.50s CPU      0.53s WALL (      12 calls)
     v_xc         :      7.90s CPU      8.20s WALL (      12 calls)
     mix_rho      :      2.47s CPU      2.60s WALL (      11 calls)

     Called by c_bands:
     init_us_2    :      0.03s CPU      0.03s WALL (      46 calls)
     init_us_2:cp :      0.03s CPU      0.03s WALL (      46 calls)
     cegterg      :      7.14s CPU      7.43s WALL (      22 calls)

     Called by sum_band:
     sum_band:wei :      0.00s CPU      0.00s WALL (      11 calls)
     sum_band:loo :      1.20s CPU      1.24s WALL (      11 calls)
     sum_band:buf :      0.02s CPU      0.02s WALL (      22 calls)
     sum_band:ini :      0.01s CPU      0.01s WALL (      22 calls)

     Called by *egterg:
     cdiaghg      :      0.00s CPU      0.00s WALL (      80 calls)
     cegterg:over :      0.16s CPU      0.16s WALL (      58 calls)
     cegterg:upda :      0.08s CPU      0.08s WALL (      58 calls)
     cegterg:last :      0.15s CPU      0.15s WALL (      53 calls)
     h_psi        :      6.93s CPU      7.23s WALL (      82 calls)
     g_psi        :      0.02s CPU      0.02s WALL (      58 calls)

     Called by h_psi:
     h_psi:calbec :      0.08s CPU      0.08s WALL (      82 calls)
     vloc_psi     :      6.76s CPU      7.05s WALL (      82 calls)
     add_vuspsi   :      0.04s CPU      0.04s WALL (      82 calls)

     General routines
     calbec       :      0.07s CPU      0.08s WALL (      82 calls)
     fft          :      6.57s CPU      6.87s WALL (     225 calls)
     ffts         :      0.56s CPU      0.58s WALL (      22 calls)
     fftw         :      6.26s CPU      6.55s WALL (     662 calls)

     Parallel routines

     PWSCF        :     22.17s CPU     23.26s WALL


   This run was terminated on:  18:56:40   5Jun2024            

=------------------------------------------------------------------------------=
   JOB DONE.
=------------------------------------------------------------------------------=
