
     Program PWSCF v.7.2 starts on 31Jul2024 at 13:33:32 

     This program is part of the open-source Quantum ESPRESSO suite
     for quantum simulation of materials; please cite
         "P. Giannozzi et al., J. Phys.:Condens. Matter 21 395502 (2009);
         "P. Giannozzi et al., J. Phys.:Condens. Matter 29 465901 (2017);
         "P. Giannozzi et al., J. Chem. Phys. 152 154105 (2020);
          URL http://www.quantum-espresso.org", 
     in publications or presentations arising from this work. More details at
     http://www.quantum-espresso.org/quote

     Parallel version (MPI), running on     6 processors

     MPI processes distributed on     1 nodes
     10997 MiB available memory on the printing compute node when the environment starts

     Waiting for input...
     Reading input from standard input

     Current dimensions of program PWSCF are:
     Max number of different atomic species (ntypx) = 10
     Max number of k-points (npk) =  40000
     Max angular momentum in pseudopotentials (lmaxx) =  4
     WARNING: atomic wfc #  2 for atom typeC has zero norm
     WARNING: atomic wfc #  4 for atom typeC has zero norm
     Message from routine setup:
     the system is metallic, specify occupations

     R & G space division:  proc/nbgrp/npool/nimage =       6
     Subspace diagonalization in iterative solution of the eigenvalue problem:
     a serial algorithm will be used


     Parallelization info
     --------------------
     sticks:   dense  smooth     PW     G-vecs:    dense   smooth      PW
     Min        2123    2123    529               180125   180125   22507
     Max        2125    2125    531               180126   180126   22508
     Sum       12745   12745   3181              1080751  1080751  135043

     Using Slab Decomposition



     bravais-lattice index     =            1
     lattice parameter (alat)  =      20.0000  a.u.
     unit-cell volume          =    8000.0000 (a.u.)^3
     number of atoms/cell      =            2
     number of atomic types    =            2
     number of electrons       =        11.00 (up:   6.00, down:   5.00)
     number of Kohn-Sham states=            6
     kinetic-energy cutoff     =     100.0000  Ry
     charge density cutoff     =     400.0000  Ry
     scf convergence threshold =      1.0E-08
     mixing beta               =       0.7000
     number of iterations used =            8  plain     mixing
     Exchange-correlation=  SLA  PW   PBX  PBC
                           (   1   4   3   4   0   0   0)

     celldm(1)=  20.000000  celldm(2)=   0.000000  celldm(3)=   0.000000
     celldm(4)=   0.000000  celldm(5)=   0.000000  celldm(6)=   0.000000

     crystal axes: (cart. coord. in units of alat)
               a(1) = (   1.000000   0.000000   0.000000 )  
               a(2) = (   0.000000   1.000000   0.000000 )  
               a(3) = (   0.000000   0.000000   1.000000 )  

     reciprocal axes: (cart. coord. in units 2 pi/alat)
               b(1) = (  1.000000  0.000000  0.000000 )  
               b(2) = (  0.000000  1.000000  0.000000 )  
               b(3) = (  0.000000  0.000000  1.000000 )  


     PseudoPot. # 1 for F  read from file:
     ../pseudo/F_pbe-20080902.UPF
     MD5 check sum: c4eff971cdb459dd7b15ab7248b0a311
     Pseudo is Norm-conserving, Zval =  7.0
     Generated by new atomic code, or converted to UPF format
     Using radial grid of 1105 points,  1 beta functions with: 
                l(1) =   0

     PseudoPot. # 2 for C  read from file:
     ../pseudo/C_pbe-20080909.UPF
     MD5 check sum: b96d1839e7ccc8194266cd9838fa26fc
     Pseudo is Norm-conserving, Zval =  4.0
     Generated by new atomic code, or converted to UPF format
     Using radial grid of 1073 points,  2 beta functions with: 
                l(1) =   0
                l(2) =   1

     atomic species   valence    mass     pseudopotential
        F              7.00     9.00000     F ( 1.00)
        C              4.00    12.00000     C ( 1.00)

     Starting magnetic structure 
     atomic species   magnetization
        F            0.000
        C            0.000

      8 Sym. Ops. (no inversion) found


                                    s                        frac. trans.

      isym =  1     identity                                     

 cryst.   s( 1) = (     1          0          0      )
                  (     0          1          0      )
                  (     0          0          1      )

 cart.    s( 1) = (  1.0000000  0.0000000  0.0000000 )
                  (  0.0000000  1.0000000  0.0000000 )
                  (  0.0000000  0.0000000  1.0000000 )


      isym =  2     180 deg rotation - cart. axis [0,0,1]        

 cryst.   s( 2) = (    -1          0          0      )
                  (     0         -1          0      )
                  (     0          0          1      )

 cart.    s( 2) = ( -1.0000000  0.0000000  0.0000000 )
                  (  0.0000000 -1.0000000  0.0000000 )
                  (  0.0000000  0.0000000  1.0000000 )


      isym =  3      90 deg rotation - cart. axis [0,0,-1]       

 cryst.   s( 3) = (     0         -1          0      )
                  (     1          0          0      )
                  (     0          0          1      )

 cart.    s( 3) = (  0.0000000  1.0000000  0.0000000 )
                  ( -1.0000000  0.0000000  0.0000000 )
                  (  0.0000000  0.0000000  1.0000000 )


      isym =  4      90 deg rotation - cart. axis [0,0,1]        

 cryst.   s( 4) = (     0          1          0      )
                  (    -1          0          0      )
                  (     0          0          1      )

 cart.    s( 4) = (  0.0000000 -1.0000000  0.0000000 )
                  (  1.0000000  0.0000000  0.0000000 )
                  (  0.0000000  0.0000000  1.0000000 )


      isym =  5     inv. 180 deg rotation - cart. axis [0,1,0]   

 cryst.   s( 5) = (     1          0          0      )
                  (     0         -1          0      )
                  (     0          0          1      )

 cart.    s( 5) = (  1.0000000  0.0000000  0.0000000 )
                  (  0.0000000 -1.0000000  0.0000000 )
                  (  0.0000000  0.0000000  1.0000000 )


      isym =  6     inv. 180 deg rotation - cart. axis [1,0,0]   

 cryst.   s( 6) = (    -1          0          0      )
                  (     0          1          0      )
                  (     0          0          1      )

 cart.    s( 6) = ( -1.0000000  0.0000000  0.0000000 )
                  (  0.0000000  1.0000000  0.0000000 )
                  (  0.0000000  0.0000000  1.0000000 )


      isym =  7     inv. 180 deg rotation - cart. axis [1,1,0]   

 cryst.   s( 7) = (     0         -1          0      )
                  (    -1          0          0      )
                  (     0          0          1      )

 cart.    s( 7) = (  0.0000000 -1.0000000  0.0000000 )
                  ( -1.0000000  0.0000000  0.0000000 )
                  (  0.0000000  0.0000000  1.0000000 )


      isym =  8     inv. 180 deg rotation - cart. axis [1,-1,0]  

 cryst.   s( 8) = (     0          1          0      )
                  (     1          0          0      )
                  (     0          0          1      )

 cart.    s( 8) = (  0.0000000  1.0000000  0.0000000 )
                  (  1.0000000  0.0000000  0.0000000 )
                  (  0.0000000  0.0000000  1.0000000 )


     point group C_4v (4mm) 
     there are  5 classes
     the character table:

       E     2C4   C2    2s_v  2s_d 
A_1    1.00  1.00  1.00  1.00  1.00
A_2    1.00  1.00  1.00 -1.00 -1.00
B_1    1.00 -1.00  1.00  1.00 -1.00
B_2    1.00 -1.00  1.00 -1.00  1.00
E      2.00  0.00 -2.00  0.00  0.00

     the symmetry operations in each class and the name of the first element:

     E        1
          identity                                               
     2C4      3    4
           90 deg rotation - cart. axis [0,0,-1]                 
     C2       2
          180 deg rotation - cart. axis [0,0,1]                  
     2s_v     5    6
          inv. 180 deg rotation - cart. axis [0,1,0]             
     2s_d     7    8
          inv. 180 deg rotation - cart. axis [1,1,0]             

   Cartesian axes

     site n.     atom                  positions (alat units)
         1           F   tau(   1) = (   0.0000000   0.0000000   0.0099875  )
         2           C   tau(   2) = (   0.0000000   0.0000000   0.1317419  )

   Crystallographic axes

     site n.     atom                  positions (cryst. coord.)
         1           F   tau(   1) = (  0.0000000  0.0000000  0.0099875  )
         2           C   tau(   2) = (  0.0000000  0.0000000  0.1317419  )

     number of k points=     1
                       cart. coord. in units 2pi/alat
        k(    1) = (   0.0000000   0.0000000   0.0000000), wk =   1.0000000

                       cryst. coord.
        k(    1) = (   0.0000000   0.0000000   0.0000000), wk =   1.0000000

     Dense  grid:  1080751 G-vectors     FFT dimensions: ( 128, 128, 128)

     Dynamical RAM for                 wfc:       2.06 MB

     Dynamical RAM for     wfc (w. buffer):       6.18 MB

     Dynamical RAM for           str. fact:       5.50 MB

     Dynamical RAM for           local pot:       0.00 MB

     Dynamical RAM for          nlocal pot:       1.72 MB

     Dynamical RAM for                qrad:       0.28 MB

     Dynamical RAM for          rho,v,vnew:      32.99 MB

     Dynamical RAM for               rhoin:      11.00 MB

     Dynamical RAM for            rho*nmix:      87.95 MB

     Dynamical RAM for           G-vectors:      11.68 MB

     Dynamical RAM for          h,s,v(r/c):       0.01 MB

     Dynamical RAM for          <psi|beta>:       0.00 MB

     Dynamical RAM for                 psi:       4.12 MB

     Dynamical RAM for                hpsi:       4.12 MB

     Dynamical RAM for      wfcinit/wfcrot:       8.94 MB

     Estimated static dynamical RAM per process >      94.09 MB

     Estimated max dynamical RAM per process >     190.98 MB

     Estimated total dynamical RAM >       1.12 GB
     Generating pointlists ...
     new r_m :   0.0502 (alat units)  1.0045 (a.u.) for type    1
     new r_m :   0.0502 (alat units)  1.0045 (a.u.) for type    2

     Initial potential from superposition of free atoms

     starting charge      11.0000, renormalised to      11.0000

     negative rho (up, down):  1.343E-03 1.343E-03
     Starting wfcs are   13 randomized atomic wfcs

     total cpu time spent up to now is        2.4 secs

     Self-consistent Calculation

     iteration #  1     ecut=   100.00 Ry     beta= 0.70
     Davidson diagonalization with overlap

---- Real-time Memory Report at c_bands before calling an iterative solver
           172 MiB given to the printing process from OS
             0 MiB allocation reported by mallinfo(arena+hblkhd)
         10410 MiB available memory on the node where the printing process lives
------------------
     ethr =  1.00E-04,  avg # of iterations =  5.5

     negative rho (up, down):  3.390E-04 3.901E-04

     total cpu time spent up to now is        5.4 secs

     total energy              =     -59.35624210 Ry
     estimated scf accuracy    <       0.06239971 Ry

     total magnetization       =     1.00 Bohr mag/cell
     absolute magnetization    =     1.00 Bohr mag/cell

     iteration #  2     ecut=   100.00 Ry     beta= 0.70
     Davidson diagonalization with overlap

---- Real-time Memory Report at c_bands before calling an iterative solver
           235 MiB given to the printing process from OS
             0 MiB allocation reported by mallinfo(arena+hblkhd)
          9759 MiB available memory on the node where the printing process lives
------------------
     ethr =  5.67E-04,  avg # of iterations =  2.0

     negative rho (up, down):  1.123E-04 1.429E-04

     total cpu time spent up to now is        7.6 secs

     total energy              =     -59.36829616 Ry
     estimated scf accuracy    <       0.00781886 Ry

     total magnetization       =     1.00 Bohr mag/cell
     absolute magnetization    =     1.01 Bohr mag/cell

     iteration #  3     ecut=   100.00 Ry     beta= 0.70
     Davidson diagonalization with overlap

---- Real-time Memory Report at c_bands before calling an iterative solver
           246 MiB given to the printing process from OS
             0 MiB allocation reported by mallinfo(arena+hblkhd)
          9682 MiB available memory on the node where the printing process lives
------------------
     ethr =  7.11E-05,  avg # of iterations =  3.0

     negative rho (up, down):  3.878E-05 5.342E-05

     total cpu time spent up to now is       10.0 secs

     total energy              =     -59.37207449 Ry
     estimated scf accuracy    <       0.00358219 Ry

     total magnetization       =     1.00 Bohr mag/cell
     absolute magnetization    =     1.02 Bohr mag/cell

     iteration #  4     ecut=   100.00 Ry     beta= 0.70
     Davidson diagonalization with overlap

---- Real-time Memory Report at c_bands before calling an iterative solver
           257 MiB given to the printing process from OS
             0 MiB allocation reported by mallinfo(arena+hblkhd)
          9622 MiB available memory on the node where the printing process lives
------------------
     ethr =  3.26E-05,  avg # of iterations =  2.5

     negative rho (up, down):  2.567E-08 6.958E-08

     total cpu time spent up to now is       12.2 secs

     total energy              =     -59.37314141 Ry
     estimated scf accuracy    <       0.00013013 Ry

     total magnetization       =     1.00 Bohr mag/cell
     absolute magnetization    =     1.02 Bohr mag/cell

     iteration #  5     ecut=   100.00 Ry     beta= 0.70
     Davidson diagonalization with overlap

---- Real-time Memory Report at c_bands before calling an iterative solver
           268 MiB given to the printing process from OS
             0 MiB allocation reported by mallinfo(arena+hblkhd)
          9556 MiB available memory on the node where the printing process lives
------------------
     ethr =  1.18E-06,  avg # of iterations =  5.0

     negative rho (up, down):  9.458E-07 1.605E-06

     total cpu time spent up to now is       14.9 secs

     total energy              =     -59.37329878 Ry
     estimated scf accuracy    <       0.00007319 Ry

     total magnetization       =     1.00 Bohr mag/cell
     absolute magnetization    =     1.03 Bohr mag/cell

     iteration #  6     ecut=   100.00 Ry     beta= 0.70
     Davidson diagonalization with overlap

---- Real-time Memory Report at c_bands before calling an iterative solver
           279 MiB given to the printing process from OS
             0 MiB allocation reported by mallinfo(arena+hblkhd)
          9480 MiB available memory on the node where the printing process lives
------------------
     ethr =  6.65E-07,  avg # of iterations =  4.5

     total cpu time spent up to now is       17.3 secs

     total energy              =     -59.37333188 Ry
     estimated scf accuracy    <       0.00003690 Ry

     total magnetization       =     1.00 Bohr mag/cell
     absolute magnetization    =     1.03 Bohr mag/cell

     iteration #  7     ecut=   100.00 Ry     beta= 0.70
     Davidson diagonalization with overlap

---- Real-time Memory Report at c_bands before calling an iterative solver
           290 MiB given to the printing process from OS
             0 MiB allocation reported by mallinfo(arena+hblkhd)
          9413 MiB available memory on the node where the printing process lives
------------------
     ethr =  3.35E-07,  avg # of iterations =  2.5

     total cpu time spent up to now is       19.7 secs

     total energy              =     -59.37334171 Ry
     estimated scf accuracy    <       0.00000079 Ry

     total magnetization       =     1.00 Bohr mag/cell
     absolute magnetization    =     1.03 Bohr mag/cell

     iteration #  8     ecut=   100.00 Ry     beta= 0.70
     Davidson diagonalization with overlap

---- Real-time Memory Report at c_bands before calling an iterative solver
           301 MiB given to the printing process from OS
             0 MiB allocation reported by mallinfo(arena+hblkhd)
          9350 MiB available memory on the node where the printing process lives
------------------
     ethr =  7.17E-09,  avg # of iterations =  4.5

     total cpu time spent up to now is       22.3 secs

     total energy              =     -59.37334205 Ry
     estimated scf accuracy    <       0.00000047 Ry

     total magnetization       =     1.00 Bohr mag/cell
     absolute magnetization    =     1.03 Bohr mag/cell

     iteration #  9     ecut=   100.00 Ry     beta= 0.70
     Davidson diagonalization with overlap

---- Real-time Memory Report at c_bands before calling an iterative solver
           312 MiB given to the printing process from OS
             0 MiB allocation reported by mallinfo(arena+hblkhd)
          9286 MiB available memory on the node where the printing process lives
------------------
     ethr =  4.30E-09,  avg # of iterations =  3.0

     total cpu time spent up to now is       24.7 secs

     total energy              =     -59.37334220 Ry
     estimated scf accuracy    <       0.00000004 Ry

     total magnetization       =     1.00 Bohr mag/cell
     absolute magnetization    =     1.03 Bohr mag/cell

     iteration # 10     ecut=   100.00 Ry     beta= 0.70
     Davidson diagonalization with overlap

---- Real-time Memory Report at c_bands before calling an iterative solver
           323 MiB given to the printing process from OS
             0 MiB allocation reported by mallinfo(arena+hblkhd)
          9222 MiB available memory on the node where the printing process lives
------------------
     ethr =  3.27E-10,  avg # of iterations =  3.0

     Magnetic moment per site  (integrated on atomic sphere of radius R)
     atom   1 (R=0.050)  charge=  4.4292  magn=  0.0624
     atom   2 (R=0.050)  charge=  1.1537  magn=  0.2933

     total cpu time spent up to now is       26.8 secs

     End of self-consistent calculation

 ------ SPIN UP ------------


          k = 0.0000 0.0000 0.0000 (135043 PWs)   bands (ev):

   -33.2497 -17.1335 -13.1278 -13.1278  -9.9352  -4.5403

     occupation numbers 
     1.0000   1.0000   1.0000   1.0000   1.0000   1.0000

 ------ SPIN DOWN ----------


          k = 0.0000 0.0000 0.0000 (135043 PWs)   bands (ev):

   -33.0542 -16.6183 -12.7508 -12.7508  -9.0154  -2.7125

     occupation numbers 
     1.0000   1.0000   1.0000   1.0000   1.0000   0.0000

     highest occupied, lowest unoccupied level (ev):    -4.5403   -2.7125

!    total energy              =     -59.37334221 Ry
     estimated scf accuracy    <          4.4E-10 Ry

     The total energy is the sum of the following terms:
     one-electron contribution =    -109.01312213 Ry
     hartree contribution      =      56.08271887 Ry
     xc contribution           =     -12.36325214 Ry
     ewald contribution        =       5.92031318 Ry

     total magnetization       =     1.00 Bohr mag/cell
     absolute magnetization    =     1.03 Bohr mag/cell

     convergence has been achieved in  10 iterations

     Writing all to output data dir ./scratch/CF.save/

     init_run     :      2.08s CPU      2.31s WALL (       1 calls)
     electrons    :     23.46s CPU     24.53s WALL (       1 calls)

     Called by init_run:
     wfcinit      :      0.73s CPU      0.74s WALL (       1 calls)
     wfcinit:atom :      0.01s CPU      0.01s WALL (       2 calls)
     wfcinit:wfcr :      0.69s CPU      0.70s WALL (       2 calls)
     potinit      :      0.82s CPU      0.98s WALL (       1 calls)
     hinit0       :      0.12s CPU      0.14s WALL (       1 calls)

     Called by electrons:
     c_bands      :     10.39s CPU     10.84s WALL (      10 calls)
     sum_band     :      3.17s CPU      3.36s WALL (      10 calls)
     v_of_rho     :      8.15s CPU      8.49s WALL (      11 calls)
     v_h          :      0.51s CPU      0.54s WALL (      11 calls)
     v_xc         :      7.64s CPU      7.96s WALL (      11 calls)
     mix_rho      :      2.14s CPU      2.27s WALL (      10 calls)

     Called by c_bands:
     init_us_2    :      0.08s CPU      0.09s WALL (      42 calls)
     init_us_2:cp :      0.08s CPU      0.09s WALL (      42 calls)
     cegterg      :     10.26s CPU     10.71s WALL (      20 calls)

     Called by sum_band:
     sum_band:wei :      0.00s CPU      0.00s WALL (      10 calls)
     sum_band:loo :      1.67s CPU      1.71s WALL (      10 calls)
     sum_band:buf :      0.02s CPU      0.02s WALL (      20 calls)
     sum_band:ini :      0.04s CPU      0.04s WALL (      20 calls)

     Called by *egterg:
     cdiaghg      :      0.01s CPU      0.01s WALL (      91 calls)
     cegterg:over :      0.31s CPU      0.31s WALL (      71 calls)
     cegterg:upda :      0.16s CPU      0.17s WALL (      71 calls)
     cegterg:last :      0.29s CPU      0.29s WALL (      54 calls)
     h_psi        :      9.98s CPU     10.43s WALL (      93 calls)
     g_psi        :      0.02s CPU      0.02s WALL (      71 calls)

     Called by h_psi:
     h_psi:calbec :      0.15s CPU      0.16s WALL (      93 calls)
     vloc_psi     :      9.65s CPU     10.09s WALL (      93 calls)
     add_vuspsi   :      0.09s CPU      0.10s WALL (      93 calls)

     General routines
     calbec       :      0.15s CPU      0.15s WALL (      93 calls)
     fft          :      5.94s CPU      6.22s WALL (     206 calls)
     ffts         :      0.53s CPU      0.55s WALL (      20 calls)
     fftw         :      9.13s CPU      9.56s WALL (     952 calls)

     Parallel routines

     PWSCF        :     25.72s CPU     27.17s WALL


   This run was terminated on:  13:33:59  31Jul2024            

=------------------------------------------------------------------------------=
   JOB DONE.
=------------------------------------------------------------------------------=
