
     Program PWSCF v.7.2 starts on 19Sep2024 at 12:13:38 

     This program is part of the open-source Quantum ESPRESSO suite
     for quantum simulation of materials; please cite
         "P. Giannozzi et al., J. Phys.:Condens. Matter 21 395502 (2009);
         "P. Giannozzi et al., J. Phys.:Condens. Matter 29 465901 (2017);
         "P. Giannozzi et al., J. Chem. Phys. 152 154105 (2020);
          URL http://www.quantum-espresso.org", 
     in publications or presentations arising from this work. More details at
     http://www.quantum-espresso.org/quote

     Parallel version (MPI & OpenMP), running on     720 processor cores
     Number of MPI processes:               360
     Threads/MPI process:                     2

     MPI processes distributed on    10 nodes
     186037 MiB available memory on the printing compute node when the environment starts
 
     Waiting for input...
     Reading input from standard input

     Current dimensions of program PWSCF are:
     Max number of different atomic species (ntypx) = 10
     Max number of k-points (npk) =  40000
     Max angular momentum in pseudopotentials (lmaxx) =  4
     WARNING: atomic wfc #  4 for atom typeS has zero norm
 
     K-points division:     npool     =       2
     R & G space division:  proc/nbgrp/npool/nimage =     180
     Subspace diagonalization in iterative solution of the eigenvalue problem:
     a serial algorithm will be used

 
     Parallelization info
     --------------------
     sticks:   dense  smooth     PW     G-vecs:    dense   smooth      PW
     Min         242     242     60                38018    38018    4748
     Max         243     243     61                38026    38026    4757
     Sum       43577   43577  10893              6843987  6843987  855385
 
     Using Slab Decomposition
 


     bravais-lattice index     =            1
     lattice parameter (alat)  =      37.0000  a.u.
     unit-cell volume          =   50653.0000 (a.u.)^3
     number of atoms/cell      =            2
     number of atomic types    =            2
     number of electrons       =        12.00 (up:   7.00, down:   5.00)
     number of Kohn-Sham states=            7
     kinetic-energy cutoff     =     100.0000  Ry
     charge density cutoff     =     400.0000  Ry
     scf convergence threshold =      1.0E-08
     mixing beta               =       0.7000
     number of iterations used =            8  plain     mixing
     energy convergence thresh.=      1.0E-04
     force convergence thresh. =      1.0E-03
     Exchange-correlation=  SLA  PW   PBX  PBC
                           (   1   4   3   4   0   0   0)
     nstep                     =           50


     celldm(1)=  37.000000  celldm(2)=   0.000000  celldm(3)=   0.000000
     celldm(4)=   0.000000  celldm(5)=   0.000000  celldm(6)=   0.000000

     crystal axes: (cart. coord. in units of alat)
               a(1) = (   1.000000   0.000000   0.000000 )  
               a(2) = (   0.000000   1.000000   0.000000 )  
               a(3) = (   0.000000   0.000000   1.000000 )  

     reciprocal axes: (cart. coord. in units 2 pi/alat)
               b(1) = (  1.000000  0.000000  0.000000 )  
               b(2) = (  0.000000  1.000000  0.000000 )  
               b(3) = (  0.000000  0.000000  1.000000 )  


     PseudoPot. # 1 for O  read from file:
     ../pseudo/O.pbe-tm-new-gipaw-dc.UPF
     MD5 check sum: cd70c9dcf1f7d755502eb127a1501eea
     Pseudo is Norm-conserving, Zval =  6.0
     Generated by new atomic code, or converted to UPF format
     Using radial grid of 1469 points,  1 beta functions with: 
                l(1) =   0

     PseudoPot. # 2 for S  read from file:
     ../pseudo/S.pbe-tm-gipaw-new-dc.UPF
     MD5 check sum: 3ec8f3b6d40e085fa371b22de74559cc
     Pseudo is Norm-conserving + core correction, Zval =  6.0
     Generated by new atomic code, or converted to UPF format
     Using radial grid of 1539 points,  2 beta functions with: 
                l(1) =   0
                l(2) =   1

     atomic species   valence    mass     pseudopotential
        O              6.00    16.00000     O ( 1.00)
        S              6.00    32.00000     S ( 1.00)

     Starting magnetic structure 
     atomic species   magnetization
        O            0.000
        S            0.000

      8 Sym. Ops. (no inversion) found


                                    s                        frac. trans.

      isym =  1     identity                                     

 cryst.   s( 1) = (     1          0          0      )
                  (     0          1          0      )
                  (     0          0          1      )

 cart.    s( 1) = (  1.0000000  0.0000000  0.0000000 )
                  (  0.0000000  1.0000000  0.0000000 )
                  (  0.0000000  0.0000000  1.0000000 )


      isym =  2     180 deg rotation - cart. axis [0,0,1]        

 cryst.   s( 2) = (    -1          0          0      )
                  (     0         -1          0      )
                  (     0          0          1      )

 cart.    s( 2) = ( -1.0000000  0.0000000  0.0000000 )
                  (  0.0000000 -1.0000000  0.0000000 )
                  (  0.0000000  0.0000000  1.0000000 )


      isym =  3      90 deg rotation - cart. axis [0,0,-1]       

 cryst.   s( 3) = (     0         -1          0      )
                  (     1          0          0      )
                  (     0          0          1      )

 cart.    s( 3) = (  0.0000000  1.0000000  0.0000000 )
                  ( -1.0000000  0.0000000  0.0000000 )
                  (  0.0000000  0.0000000  1.0000000 )


      isym =  4      90 deg rotation - cart. axis [0,0,1]        

 cryst.   s( 4) = (     0          1          0      )
                  (    -1          0          0      )
                  (     0          0          1      )

 cart.    s( 4) = (  0.0000000 -1.0000000  0.0000000 )
                  (  1.0000000  0.0000000  0.0000000 )
                  (  0.0000000  0.0000000  1.0000000 )


      isym =  5     inv. 180 deg rotation - cart. axis [0,1,0]   

 cryst.   s( 5) = (     1          0          0      )
                  (     0         -1          0      )
                  (     0          0          1      )

 cart.    s( 5) = (  1.0000000  0.0000000  0.0000000 )
                  (  0.0000000 -1.0000000  0.0000000 )
                  (  0.0000000  0.0000000  1.0000000 )


      isym =  6     inv. 180 deg rotation - cart. axis [1,0,0]   

 cryst.   s( 6) = (    -1          0          0      )
                  (     0          1          0      )
                  (     0          0          1      )

 cart.    s( 6) = ( -1.0000000  0.0000000  0.0000000 )
                  (  0.0000000  1.0000000  0.0000000 )
                  (  0.0000000  0.0000000  1.0000000 )


      isym =  7     inv. 180 deg rotation - cart. axis [1,1,0]   

 cryst.   s( 7) = (     0         -1          0      )
                  (    -1          0          0      )
                  (     0          0          1      )

 cart.    s( 7) = (  0.0000000 -1.0000000  0.0000000 )
                  ( -1.0000000  0.0000000  0.0000000 )
                  (  0.0000000  0.0000000  1.0000000 )


      isym =  8     inv. 180 deg rotation - cart. axis [1,-1,0]  

 cryst.   s( 8) = (     0          1          0      )
                  (     1          0          0      )
                  (     0          0          1      )

 cart.    s( 8) = (  0.0000000  1.0000000  0.0000000 )
                  (  1.0000000  0.0000000  0.0000000 )
                  (  0.0000000  0.0000000  1.0000000 )


     point group C_4v (4mm) 
     there are  5 classes
     the character table:

       E     2C4   C2    2s_v  2s_d 
A_1    1.00  1.00  1.00  1.00  1.00
A_2    1.00  1.00  1.00 -1.00 -1.00
B_1    1.00 -1.00  1.00  1.00 -1.00
B_2    1.00 -1.00  1.00 -1.00  1.00
E      2.00  0.00 -2.00  0.00  0.00

     the symmetry operations in each class and the name of the first element:

     E        1
          identity                                               
     2C4      3    4
           90 deg rotation - cart. axis [0,0,-1]                 
     C2       2
          180 deg rotation - cart. axis [0,0,1]                  
     2s_v     5    6
          inv. 180 deg rotation - cart. axis [0,1,0]             
     2s_d     7    8
          inv. 180 deg rotation - cart. axis [1,1,0]             

   Cartesian axes

     site n.     atom                  positions (alat units)
         1           S   tau(   1) = (   0.0000000   0.0000000   0.0000000  )
         2           O   tau(   2) = (   0.0000000   0.0000000   0.0616970  )

   Crystallographic axes

     site n.     atom                  positions (cryst. coord.)
         1           S   tau(   1) = (  0.0000000  0.0000000  0.0000000  )
         2           O   tau(   2) = (  0.0000000  0.0000000  0.0616970  )

     number of k points=     1
                       cart. coord. in units 2pi/alat
        k(    1) = (   0.0000000   0.0000000   0.0000000), wk =   1.0000000

                       cryst. coord.
        k(    1) = (   0.0000000   0.0000000   0.0000000), wk =   1.0000000

     Dense  grid:  6843987 G-vectors     FFT dimensions: ( 240, 240, 240)

     Dynamical RAM for                 wfc:       0.51 MB

     Dynamical RAM for     wfc (w. buffer):       0.51 MB

     Dynamical RAM for           str. fact:       1.16 MB

     Dynamical RAM for           local pot:       0.00 MB

     Dynamical RAM for          nlocal pot:       0.36 MB

     Dynamical RAM for                qrad:       0.28 MB

     Dynamical RAM for          rho,v,vnew:       8.75 MB

     Dynamical RAM for               rhoin:       2.92 MB

     Dynamical RAM for            rho*nmix:      18.57 MB

     Dynamical RAM for           G-vectors:       2.47 MB

     Dynamical RAM for          h,s,v(r/c):       0.01 MB

     Dynamical RAM for          <psi|beta>:       0.00 MB

     Dynamical RAM for                 psi:       1.02 MB

     Dynamical RAM for                hpsi:       1.02 MB

     Dynamical RAM for      wfcinit/wfcrot:       2.62 MB

     Estimated static dynamical RAM per process >      23.46 MB

     Estimated max dynamical RAM per process >     104.43 MB

     Estimated total dynamical RAM >      12.43 GB
     Generating pointlists ...
     new r_m :   0.0255 (alat units)  0.9417 (a.u.) for type    1
     new r_m :   0.0255 (alat units)  0.9417 (a.u.) for type    2

     Initial potential from superposition of free atoms

     starting charge      11.0000, renormalised to      12.0000

     negative rho (up, down):  7.297E-05 7.297E-05
     Starting wfcs are   18 randomized atomic wfcs

     total cpu time spent up to now is       11.3 secs

     Self-consistent Calculation

     iteration #  1     ecut=   100.00 Ry     beta= 0.70
     Davidson diagonalization with overlap

---- Real-time Memory Report at c_bands before calling an iterative solver
           171 MiB given to the printing process from OS
             0 MiB allocation reported by mallinfo(arena+hblkhd)
        180803 MiB available memory on the node where the printing process lives
------------------
     ethr =  1.00E-04,  avg # of iterations =  6.0

     negative rho (up, down):  1.534E-05 2.029E-05

     total cpu time spent up to now is       12.3 secs

     total energy              =     -53.30633249 Ry
     estimated scf accuracy    <       0.23731170 Ry

     total magnetization       =     2.00 Bohr mag/cell
     absolute magnetization    =     2.00 Bohr mag/cell

     iteration #  2     ecut=   100.00 Ry     beta= 0.70
     Davidson diagonalization with overlap

---- Real-time Memory Report at c_bands before calling an iterative solver
           207 MiB given to the printing process from OS
             0 MiB allocation reported by mallinfo(arena+hblkhd)
        179552 MiB available memory on the node where the printing process lives
------------------
     ethr =  1.98E-03,  avg # of iterations =  2.0

     negative rho (up, down):  9.140E-06 1.255E-05

     total cpu time spent up to now is       12.8 secs

     total energy              =     -53.36305622 Ry
     estimated scf accuracy    <       0.19030408 Ry

     total magnetization       =     2.00 Bohr mag/cell
     absolute magnetization    =     2.02 Bohr mag/cell

     iteration #  3     ecut=   100.00 Ry     beta= 0.70
     Davidson diagonalization with overlap

---- Real-time Memory Report at c_bands before calling an iterative solver
           212 MiB given to the printing process from OS
             0 MiB allocation reported by mallinfo(arena+hblkhd)
        179361 MiB available memory on the node where the printing process lives
------------------
     ethr =  1.59E-03,  avg # of iterations =  2.0

     negative rho (up, down):  2.140E-06 3.277E-06

     total cpu time spent up to now is       13.4 secs

     total energy              =     -53.40213437 Ry
     estimated scf accuracy    <       0.00281988 Ry

     total magnetization       =     2.00 Bohr mag/cell
     absolute magnetization    =     2.03 Bohr mag/cell

     iteration #  4     ecut=   100.00 Ry     beta= 0.70
     Davidson diagonalization with overlap

---- Real-time Memory Report at c_bands before calling an iterative solver
           215 MiB given to the printing process from OS
             0 MiB allocation reported by mallinfo(arena+hblkhd)
        179268 MiB available memory on the node where the printing process lives
------------------
     ethr =  2.35E-05,  avg # of iterations =  2.5

     negative rho (up, down):  2.083E-07 4.162E-07

     total cpu time spent up to now is       13.9 secs

     total energy              =     -53.40350411 Ry
     estimated scf accuracy    <       0.00031250 Ry

     total magnetization       =     2.00 Bohr mag/cell
     absolute magnetization    =     2.04 Bohr mag/cell

     iteration #  5     ecut=   100.00 Ry     beta= 0.70
     Davidson diagonalization with overlap

---- Real-time Memory Report at c_bands before calling an iterative solver
           218 MiB given to the printing process from OS
             0 MiB allocation reported by mallinfo(arena+hblkhd)
        179183 MiB available memory on the node where the printing process lives
------------------
     ethr =  2.60E-06,  avg # of iterations =  2.0

     negative rho (up, down):  1.374E-08 2.885E-08

     total cpu time spent up to now is       14.5 secs

     total energy              =     -53.40363805 Ry
     estimated scf accuracy    <       0.00002248 Ry

     total magnetization       =     2.00 Bohr mag/cell
     absolute magnetization    =     2.05 Bohr mag/cell

     iteration #  6     ecut=   100.00 Ry     beta= 0.70
     Davidson diagonalization with overlap

---- Real-time Memory Report at c_bands before calling an iterative solver
           221 MiB given to the printing process from OS
             0 MiB allocation reported by mallinfo(arena+hblkhd)
        179097 MiB available memory on the node where the printing process lives
------------------
     ethr =  1.87E-07,  avg # of iterations =  3.0

     total cpu time spent up to now is       15.1 secs

     total energy              =     -53.40366023 Ry
     estimated scf accuracy    <       0.00000185 Ry

     total magnetization       =     2.00 Bohr mag/cell
     absolute magnetization    =     2.05 Bohr mag/cell

     iteration #  7     ecut=   100.00 Ry     beta= 0.70
     Davidson diagonalization with overlap

---- Real-time Memory Report at c_bands before calling an iterative solver
           225 MiB given to the printing process from OS
             0 MiB allocation reported by mallinfo(arena+hblkhd)
        179024 MiB available memory on the node where the printing process lives
------------------
     ethr =  1.54E-08,  avg # of iterations =  3.5

     total cpu time spent up to now is       15.7 secs

     total energy              =     -53.40366218 Ry
     estimated scf accuracy    <       0.00000013 Ry

     total magnetization       =     2.00 Bohr mag/cell
     absolute magnetization    =     2.05 Bohr mag/cell

     iteration #  8     ecut=   100.00 Ry     beta= 0.70
     Davidson diagonalization with overlap

---- Real-time Memory Report at c_bands before calling an iterative solver
           228 MiB given to the printing process from OS
             0 MiB allocation reported by mallinfo(arena+hblkhd)
        178939 MiB available memory on the node where the printing process lives
------------------
     ethr =  1.05E-09,  avg # of iterations =  3.0

     total cpu time spent up to now is       16.2 secs

     total energy              =     -53.40366232 Ry
     estimated scf accuracy    <       0.00000003 Ry

     total magnetization       =     2.00 Bohr mag/cell
     absolute magnetization    =     2.05 Bohr mag/cell

     iteration #  9     ecut=   100.00 Ry     beta= 0.70
     Davidson diagonalization with overlap

---- Real-time Memory Report at c_bands before calling an iterative solver
           230 MiB given to the printing process from OS
             0 MiB allocation reported by mallinfo(arena+hblkhd)
        178858 MiB available memory on the node where the printing process lives
------------------
     ethr =  2.29E-10,  avg # of iterations =  3.0
 
     Magnetic moment per site  (integrated on atomic sphere of radius R)
     atom   1 (R=0.025)  charge=  0.6543  magn=  0.1110
     atom   2 (R=0.025)  charge=  3.1827  magn=  0.3059

     total cpu time spent up to now is       16.8 secs

     End of self-consistent calculation

 ------ SPIN UP ------------


          k = 0.0000 0.0000 0.0000 (855385 PWs)   bands (ev):

   -30.9288 -15.7651 -13.2202 -13.2202 -11.5874  -5.0041  -5.0041

     occupation numbers 
     1.0000   1.0000   1.0000   1.0000   1.0000   1.0000   1.0000

 ------ SPIN DOWN ----------


          k = 0.0000 0.0000 0.0000 (855385 PWs)   bands (ev):

   -30.3556 -14.3468 -12.2204 -12.2204 -10.7508  -3.1220  -3.1220

     occupation numbers 
     1.0000   1.0000   1.0000   1.0000   1.0000   0.0000   0.0000

     highest occupied, lowest unoccupied level (ev):    -5.0041   -3.1220

!    total energy              =     -53.40366236 Ry
     estimated scf accuracy    <          1.3E-09 Ry

     The total energy is the sum of the following terms:
     one-electron contribution =    -123.67075243 Ry
     hartree contribution      =      63.20605836 Ry
     xc contribution           =     -13.45247827 Ry
     ewald contribution        =      20.51350999 Ry

     total magnetization       =     2.00 Bohr mag/cell
     absolute magnetization    =     2.05 Bohr mag/cell

     convergence has been achieved in   9 iterations

     Forces acting on atoms (cartesian axes, Ry/au):

     atom    1 type  2   force =     0.00000000    0.00000000   -1.40568987
     atom    2 type  1   force =     0.00000000    0.00000000    1.40568987
     The non-local contrib.  to forces
     atom    1 type  2   force =     0.00000000    0.00000000   -1.27548029
     atom    2 type  1   force =     0.00000000    0.00000000   -1.29484254
     The ionic contribution  to forces
     atom    1 type  2   force =    -0.00000000   -0.00000000  -13.80284507
     atom    2 type  1   force =     0.00000000    0.00000000   13.80284507
     The local contribution  to forces
     atom    1 type  2   force =     0.00000000    0.00000000   13.59201024
     atom    2 type  1   force =     0.00000000   -0.00000000  -11.10244039
     The core correction contribution to forces
     atom    1 type  2   force =    -0.00000000   -0.00000000    0.08058798
     atom    2 type  1   force =     0.00000000    0.00000000    0.00000000
     The Hubbard contrib.    to forces
     atom    1 type  2   force =     0.00000000    0.00000000    0.00000000
     atom    2 type  1   force =     0.00000000    0.00000000    0.00000000
     The SCF correction term to forces
     atom    1 type  2   force =     0.00000000    0.00000000   -0.00005638
     atom    2 type  1   force =     0.00000000   -0.00000000    0.00003409

     Total force =     1.987946     Total SCF correction =     0.000066

     BFGS Geometry Optimization
     Energy error            =      0.0E+00 Ry
     Gradient error          =      1.4E+00 Ry/Bohr

     number of scf cycles    =   1
     number of bfgs steps    =   0

     energy             new  =     -53.4036623568 Ry

     new trust radius        =       0.5000000000 bohr
     new conv_thr            =       0.0000000100 Ry


ATOMIC_POSITIONS (angstrom)
S             0.0000000000        0.0000000000       -0.2645886055
O             0.0000000000        0.0000000000        1.4725886055



     Writing config-only to output data dir ./scratch/so.save/
     NEW-OLD atomic charge density approx. for the potential

     negative rho (up, down):  9.015E-05 5.643E-03
     Generating pointlists ...

     total cpu time spent up to now is       22.4 secs

     Self-consistent Calculation

     iteration #  1     ecut=   100.00 Ry     beta= 0.70
     Davidson diagonalization with overlap

---- Real-time Memory Report at c_bands before calling an iterative solver
           338 MiB given to the printing process from OS
             0 MiB allocation reported by mallinfo(arena+hblkhd)
        178379 MiB available memory on the node where the printing process lives
------------------
     ethr =  1.00E-06,  avg # of iterations = 13.0

     negative rho (up, down):  4.176E-02 4.442E-02

     total cpu time spent up to now is       23.5 secs

     total energy              =     -53.34733071 Ry
     estimated scf accuracy    <       0.54302145 Ry

     total magnetization       =     2.00 Bohr mag/cell
     absolute magnetization    =     2.07 Bohr mag/cell

     iteration #  2     ecut=   100.00 Ry     beta= 0.70
     Davidson diagonalization with overlap

---- Real-time Memory Report at c_bands before calling an iterative solver
           338 MiB given to the printing process from OS
             0 MiB allocation reported by mallinfo(arena+hblkhd)
        178375 MiB available memory on the node where the printing process lives
------------------
     ethr =  4.53E-03,  avg # of iterations =  3.0

     negative rho (up, down):  3.220E-02 3.442E-02

     total cpu time spent up to now is       24.0 secs

     total energy              =     -53.37734011 Ry
     estimated scf accuracy    <       2.20933031 Ry

     total magnetization       =     2.00 Bohr mag/cell
     absolute magnetization    =     2.05 Bohr mag/cell

     iteration #  3     ecut=   100.00 Ry     beta= 0.70
     Davidson diagonalization with overlap

---- Real-time Memory Report at c_bands before calling an iterative solver
           338 MiB given to the printing process from OS
             0 MiB allocation reported by mallinfo(arena+hblkhd)
        178375 MiB available memory on the node where the printing process lives
------------------
     ethr =  4.53E-03,  avg # of iterations =  3.0

     negative rho (up, down):  1.332E-02 1.425E-02

     total cpu time spent up to now is       24.6 secs

     total energy              =     -53.62428311 Ry
     estimated scf accuracy    <       0.01236184 Ry

     total magnetization       =     2.00 Bohr mag/cell
     absolute magnetization    =     2.06 Bohr mag/cell

     iteration #  4     ecut=   100.00 Ry     beta= 0.70
     Davidson diagonalization with overlap

---- Real-time Memory Report at c_bands before calling an iterative solver
           338 MiB given to the printing process from OS
             0 MiB allocation reported by mallinfo(arena+hblkhd)
        178375 MiB available memory on the node where the printing process lives
------------------
     ethr =  1.03E-04,  avg # of iterations =  3.5

     negative rho (up, down):  3.180E-03 3.434E-03

     total cpu time spent up to now is       25.1 secs

     total energy              =     -53.62997158 Ry
     estimated scf accuracy    <       0.00703856 Ry

     total magnetization       =     2.00 Bohr mag/cell
     absolute magnetization    =     2.06 Bohr mag/cell

     iteration #  5     ecut=   100.00 Ry     beta= 0.70
     Davidson diagonalization with overlap

---- Real-time Memory Report at c_bands before calling an iterative solver
           338 MiB given to the printing process from OS
             0 MiB allocation reported by mallinfo(arena+hblkhd)
        178375 MiB available memory on the node where the printing process lives
------------------
     ethr =  5.87E-05,  avg # of iterations =  2.0

     negative rho (up, down):  1.423E-04 1.617E-04

     total cpu time spent up to now is       25.6 secs

     total energy              =     -53.63089948 Ry
     estimated scf accuracy    <       0.00015507 Ry

     total magnetization       =     2.00 Bohr mag/cell
     absolute magnetization    =     2.07 Bohr mag/cell

     iteration #  6     ecut=   100.00 Ry     beta= 0.70
     Davidson diagonalization with overlap

---- Real-time Memory Report at c_bands before calling an iterative solver
           338 MiB given to the printing process from OS
             0 MiB allocation reported by mallinfo(arena+hblkhd)
        178374 MiB available memory on the node where the printing process lives
------------------
     ethr =  1.29E-06,  avg # of iterations =  4.5

     negative rho (up, down):  7.478E-05 8.049E-05

     total cpu time spent up to now is       26.2 secs

     total energy              =     -53.63100845 Ry
     estimated scf accuracy    <       0.00006586 Ry

     total magnetization       =     2.00 Bohr mag/cell
     absolute magnetization    =     2.07 Bohr mag/cell

     iteration #  7     ecut=   100.00 Ry     beta= 0.70
     Davidson diagonalization with overlap

---- Real-time Memory Report at c_bands before calling an iterative solver
           338 MiB given to the printing process from OS
             0 MiB allocation reported by mallinfo(arena+hblkhd)
        178374 MiB available memory on the node where the printing process lives
------------------
     ethr =  5.49E-07,  avg # of iterations =  1.5

     negative rho (up, down):  5.891E-05 6.398E-05

     total cpu time spent up to now is       26.7 secs

     total energy              =     -53.63101709 Ry
     estimated scf accuracy    <       0.00001387 Ry

     total magnetization       =     2.00 Bohr mag/cell
     absolute magnetization    =     2.07 Bohr mag/cell

     iteration #  8     ecut=   100.00 Ry     beta= 0.70
     Davidson diagonalization with overlap

---- Real-time Memory Report at c_bands before calling an iterative solver
           338 MiB given to the printing process from OS
             0 MiB allocation reported by mallinfo(arena+hblkhd)
        178373 MiB available memory on the node where the printing process lives
------------------
     ethr =  1.16E-07,  avg # of iterations =  2.0

     negative rho (up, down):  6.105E-06 6.576E-06

     total cpu time spent up to now is       27.3 secs

     total energy              =     -53.63102187 Ry
     estimated scf accuracy    <       0.00000015 Ry

     total magnetization       =     2.00 Bohr mag/cell
     absolute magnetization    =     2.07 Bohr mag/cell

     iteration #  9     ecut=   100.00 Ry     beta= 0.70
     Davidson diagonalization with overlap

---- Real-time Memory Report at c_bands before calling an iterative solver
           338 MiB given to the printing process from OS
             0 MiB allocation reported by mallinfo(arena+hblkhd)
        178373 MiB available memory on the node where the printing process lives
------------------
     ethr =  1.28E-09,  avg # of iterations =  5.0

     negative rho (up, down):  4.368E-06 5.027E-06

     total cpu time spent up to now is       28.0 secs

     total energy              =     -53.63102220 Ry
     estimated scf accuracy    <       0.00000006 Ry

     total magnetization       =     2.00 Bohr mag/cell
     absolute magnetization    =     2.07 Bohr mag/cell

     iteration # 10     ecut=   100.00 Ry     beta= 0.70
     Davidson diagonalization with overlap

---- Real-time Memory Report at c_bands before calling an iterative solver
           338 MiB given to the printing process from OS
             0 MiB allocation reported by mallinfo(arena+hblkhd)
        178292 MiB available memory on the node where the printing process lives
------------------
     ethr =  5.25E-10,  avg # of iterations =  2.5

     negative rho (up, down):  2.603E-08 3.901E-08

     total cpu time spent up to now is       28.5 secs

     total energy              =     -53.63102222 Ry
     estimated scf accuracy    <       0.00000011 Ry

     total magnetization       =     2.00 Bohr mag/cell
     absolute magnetization    =     2.07 Bohr mag/cell

     iteration # 11     ecut=   100.00 Ry     beta= 0.70
     Davidson diagonalization with overlap

---- Real-time Memory Report at c_bands before calling an iterative solver
           338 MiB given to the printing process from OS
             0 MiB allocation reported by mallinfo(arena+hblkhd)
        178287 MiB available memory on the node where the printing process lives
------------------
     ethr =  5.25E-10,  avg # of iterations =  2.5
 
     Magnetic moment per site  (integrated on atomic sphere of radius R)
     atom   1 (R=0.025)  charge=  0.5756  magn=  0.1063
     atom   2 (R=0.025)  charge=  2.8419  magn=  0.4633

     total cpu time spent up to now is       29.0 secs

     End of self-consistent calculation

 ------ SPIN UP ------------


          k = 0.0000 0.0000 0.0000 (855385 PWs)   bands (ev):

   -25.1936 -17.7771 -10.7934  -9.9482  -9.9482  -6.9173  -6.9173

     occupation numbers 
     1.0000   1.0000   1.0000   1.0000   1.0000   1.0000   1.0000

 ------ SPIN DOWN ----------


          k = 0.0000 0.0000 0.0000 (855385 PWs)   bands (ev):

   -24.0430 -16.4895 -10.1885  -8.5285  -8.5285  -5.2065  -5.2065

     occupation numbers 
     1.0000   1.0000   1.0000   1.0000   1.0000   0.0000   0.0000

     highest occupied, lowest unoccupied level (ev):    -6.9173   -5.2065

!    total energy              =     -53.63102224 Ry
     estimated scf accuracy    <          9.2E-09 Ry

     The total energy is the sum of the following terms:
     one-electron contribution =    -106.91530471 Ry
     hartree contribution      =      55.03223165 Ry
     xc contribution           =     -12.67052136 Ry
     ewald contribution        =      10.92257218 Ry

     total magnetization       =     2.00 Bohr mag/cell
     absolute magnetization    =     2.07 Bohr mag/cell

     convergence has been achieved in  11 iterations

     Forces acting on atoms (cartesian axes, Ry/au):

     atom    1 type  2   force =     0.00000000    0.00000000    0.22265105
     atom    2 type  1   force =     0.00000000    0.00000000   -0.22265105
     The non-local contrib.  to forces
     atom    1 type  2   force =     0.00000000    0.00000000    0.65085578
     atom    2 type  1   force =     0.00000000    0.00000000   -2.27723558
     The ionic contribution  to forces
     atom    1 type  2   force =    -0.00000000   -0.00000000   -6.66107380
     atom    2 type  1   force =     0.00000000    0.00000000    6.66107380
     The local contribution  to forces
     atom    1 type  2   force =     0.00000000    0.00000000    6.25096564
     atom    2 type  1   force =     0.00000000   -0.00000000   -4.60630541
     The core correction contribution to forces
     atom    1 type  2   force =     0.00000000   -0.00000000   -0.01788278
     atom    2 type  1   force =     0.00000000    0.00000000    0.00000000
     The Hubbard contrib.    to forces
     atom    1 type  2   force =     0.00000000    0.00000000    0.00000000
     atom    2 type  1   force =     0.00000000    0.00000000    0.00000000
     The SCF correction term to forces
     atom    1 type  2   force =    -0.00000000   -0.00000000   -0.00010895
     atom    2 type  1   force =    -0.00000000    0.00000000   -0.00007901

     Total force =     0.314876     Total SCF correction =     0.000135
     Energy error            =      2.3E-01 Ry
     Gradient error          =      2.2E-01 Ry/Bohr

     number of scf cycles    =   2
     number of bfgs steps    =   1

     energy             old  =     -53.4036623568 Ry
     energy             new  =     -53.6310222380 Ry

     CASE: energy            _new < energy            _old

     new trust radius        =       0.0683674546 bohr
     new conv_thr            =       0.0000000100 Ry


ATOMIC_POSITIONS (angstrom)
S             0.0000000000        0.0000000000       -0.2284101065
O             0.0000000000        0.0000000000        1.4364101065



     Writing config-only to output data dir ./scratch/so.save/
     NEW-OLD atomic charge density approx. for the potential

     negative rho (up, down):  6.033E-05 2.867E-04
     Generating pointlists ...

     total cpu time spent up to now is       35.3 secs

     Self-consistent Calculation

     iteration #  1     ecut=   100.00 Ry     beta= 0.70
     Davidson diagonalization with overlap

---- Real-time Memory Report at c_bands before calling an iterative solver
           349 MiB given to the printing process from OS
             0 MiB allocation reported by mallinfo(arena+hblkhd)
        178282 MiB available memory on the node where the printing process lives
------------------
     ethr =  1.00E-06,  avg # of iterations =  8.0

     negative rho (up, down):  7.024E-04 8.088E-04

     total cpu time spent up to now is       36.2 secs

     total energy              =     -53.65449975 Ry
     estimated scf accuracy    <       0.00795042 Ry

     total magnetization       =     2.00 Bohr mag/cell
     absolute magnetization    =     2.07 Bohr mag/cell

     iteration #  2     ecut=   100.00 Ry     beta= 0.70
     Davidson diagonalization with overlap

---- Real-time Memory Report at c_bands before calling an iterative solver
           349 MiB given to the printing process from OS
             0 MiB allocation reported by mallinfo(arena+hblkhd)
        178282 MiB available memory on the node where the printing process lives
------------------
     ethr =  6.63E-05,  avg # of iterations =  3.0

     negative rho (up, down):  5.746E-04 6.631E-04

     total cpu time spent up to now is       36.7 secs

     total energy              =     -53.65004741 Ry
     estimated scf accuracy    <       0.07601516 Ry

     total magnetization       =     2.00 Bohr mag/cell
     absolute magnetization    =     2.07 Bohr mag/cell

     iteration #  3     ecut=   100.00 Ry     beta= 0.70
     Davidson diagonalization with overlap

---- Real-time Memory Report at c_bands before calling an iterative solver
           349 MiB given to the printing process from OS
             0 MiB allocation reported by mallinfo(arena+hblkhd)
        178279 MiB available memory on the node where the printing process lives
------------------
     ethr =  6.63E-05,  avg # of iterations =  3.0

     negative rho (up, down):  2.409E-04 2.831E-04

     total cpu time spent up to now is       37.3 secs

     total energy              =     -53.65912740 Ry
     estimated scf accuracy    <       0.00009065 Ry

     total magnetization       =     2.00 Bohr mag/cell
     absolute magnetization    =     2.07 Bohr mag/cell

     iteration #  4     ecut=   100.00 Ry     beta= 0.70
     Davidson diagonalization with overlap

---- Real-time Memory Report at c_bands before calling an iterative solver
           349 MiB given to the printing process from OS
             0 MiB allocation reported by mallinfo(arena+hblkhd)
        178278 MiB available memory on the node where the printing process lives
------------------
     ethr =  7.55E-07,  avg # of iterations =  4.5

     negative rho (up, down):  5.114E-05 5.976E-05

     total cpu time spent up to now is       37.9 secs

     total energy              =     -53.65919364 Ry
     estimated scf accuracy    <       0.00013297 Ry

     total magnetization       =     2.00 Bohr mag/cell
     absolute magnetization    =     2.07 Bohr mag/cell

     iteration #  5     ecut=   100.00 Ry     beta= 0.70
     Davidson diagonalization with overlap

---- Real-time Memory Report at c_bands before calling an iterative solver
           349 MiB given to the printing process from OS
             0 MiB allocation reported by mallinfo(arena+hblkhd)
        178278 MiB available memory on the node where the printing process lives
------------------
     ethr =  7.55E-07,  avg # of iterations =  2.0

     negative rho (up, down):  4.728E-06 5.071E-06

     total cpu time spent up to now is       38.4 secs

     total energy              =     -53.65920826 Ry
     estimated scf accuracy    <       0.00000213 Ry

     total magnetization       =     2.00 Bohr mag/cell
     absolute magnetization    =     2.07 Bohr mag/cell

     iteration #  6     ecut=   100.00 Ry     beta= 0.70
     Davidson diagonalization with overlap

---- Real-time Memory Report at c_bands before calling an iterative solver
           349 MiB given to the printing process from OS
             0 MiB allocation reported by mallinfo(arena+hblkhd)
        178277 MiB available memory on the node where the printing process lives
------------------
     ethr =  1.77E-08,  avg # of iterations =  4.5

     negative rho (up, down):  5.166E-06 5.530E-06

     total cpu time spent up to now is       39.0 secs

     total energy              =     -53.65920956 Ry
     estimated scf accuracy    <       0.00000202 Ry

     total magnetization       =     2.00 Bohr mag/cell
     absolute magnetization    =     2.07 Bohr mag/cell

     iteration #  7     ecut=   100.00 Ry     beta= 0.70
     Davidson diagonalization with overlap

---- Real-time Memory Report at c_bands before calling an iterative solver
           349 MiB given to the printing process from OS
             0 MiB allocation reported by mallinfo(arena+hblkhd)
        178277 MiB available memory on the node where the printing process lives
------------------
     ethr =  1.68E-08,  avg # of iterations =  1.5

     negative rho (up, down):  7.191E-07 8.010E-07

     total cpu time spent up to now is       39.5 secs

     total energy              =     -53.65920960 Ry
     estimated scf accuracy    <       0.00000028 Ry

     total magnetization       =     2.00 Bohr mag/cell
     absolute magnetization    =     2.07 Bohr mag/cell

     iteration #  8     ecut=   100.00 Ry     beta= 0.70
     Davidson diagonalization with overlap

---- Real-time Memory Report at c_bands before calling an iterative solver
           349 MiB given to the printing process from OS
             0 MiB allocation reported by mallinfo(arena+hblkhd)
        178275 MiB available memory on the node where the printing process lives
------------------
     ethr =  2.33E-09,  avg # of iterations =  3.0

     negative rho (up, down):  1.671E-07 2.029E-07

     total cpu time spent up to now is       40.0 secs

     total energy              =     -53.65920967 Ry
     estimated scf accuracy    <       0.00000004 Ry

     total magnetization       =     2.00 Bohr mag/cell
     absolute magnetization    =     2.07 Bohr mag/cell

     iteration #  9     ecut=   100.00 Ry     beta= 0.70
     Davidson diagonalization with overlap

---- Real-time Memory Report at c_bands before calling an iterative solver
           349 MiB given to the printing process from OS
             0 MiB allocation reported by mallinfo(arena+hblkhd)
        178275 MiB available memory on the node where the printing process lives
------------------
     ethr =  3.49E-10,  avg # of iterations =  1.5
 
     Magnetic moment per site  (integrated on atomic sphere of radius R)
     atom   1 (R=0.025)  charge=  0.5780  magn=  0.1079
     atom   2 (R=0.025)  charge=  2.8645  magn=  0.4490

     total cpu time spent up to now is       40.5 secs

     End of self-consistent calculation

 ------ SPIN UP ------------


          k = 0.0000 0.0000 0.0000 (855385 PWs)   bands (ev):

   -25.6659 -17.5746 -10.9021 -10.1893 -10.1893  -6.7088  -6.7088

     occupation numbers 
     1.0000   1.0000   1.0000   1.0000   1.0000   1.0000   1.0000

 ------ SPIN DOWN ----------


          k = 0.0000 0.0000 0.0000 (855385 PWs)   bands (ev):

   -24.5988 -16.2518 -10.2702  -8.8073  -8.8073  -4.9823  -4.9823

     occupation numbers 
     1.0000   1.0000   1.0000   1.0000   1.0000   0.0000   0.0000

     highest occupied, lowest unoccupied level (ev):    -6.7088   -4.9823

!    total energy              =     -53.65920967 Ry
     estimated scf accuracy    <          6.5E-09 Ry

     The total energy is the sum of the following terms:
     one-electron contribution =    -108.72543191 Ry
     hartree contribution      =      55.92939090 Ry
     xc contribution           =     -12.73630608 Ry
     ewald contribution        =      11.87313741 Ry

     total magnetization       =     2.00 Bohr mag/cell
     absolute magnetization    =     2.07 Bohr mag/cell

     convergence has been achieved in   9 iterations

     Forces acting on atoms (cartesian axes, Ry/au):

     atom    1 type  2   force =     0.00000000    0.00000000    0.18632427
     atom    2 type  1   force =     0.00000000    0.00000000   -0.18632427
     The non-local contrib.  to forces
     atom    1 type  2   force =     0.00000000    0.00000000    0.61645582
     atom    2 type  1   force =     0.00000000    0.00000000   -2.38872006
     The ionic contribution  to forces
     atom    1 type  2   force =    -0.00000000   -0.00000000   -7.25531391
     atom    2 type  1   force =     0.00000000    0.00000000    7.25531391
     The local contribution  to forces
     atom    1 type  2   force =     0.00000000   -0.00000000    6.84001070
     atom    2 type  1   force =     0.00000000   -0.00000000   -5.05289573
     The core correction contribution to forces
     atom    1 type  2   force =     0.00000000   -0.00000000   -0.01478163
     atom    2 type  1   force =     0.00000000    0.00000000    0.00000000
     The Hubbard contrib.    to forces
     atom    1 type  2   force =     0.00000000    0.00000000    0.00000000
     atom    2 type  1   force =     0.00000000    0.00000000    0.00000000
     The SCF correction term to forces
     atom    1 type  2   force =     0.00000000    0.00000000   -0.00010052
     atom    2 type  1   force =    -0.00000000    0.00000000   -0.00007620

     Total force =     0.263502     Total SCF correction =     0.000126
     Energy error            =      2.8E-02 Ry
     Gradient error          =      1.9E-01 Ry/Bohr

     number of scf cycles    =   3
     number of bfgs steps    =   2

     energy             old  =     -53.6310222380 Ry
     energy             new  =     -53.6592096727 Ry

     CASE: energy            _new < energy            _old


     WARNING: bfgs curvature condition failed, Theta= 0.956
     new trust radius        =       0.0752042001 bohr
     new conv_thr            =       0.0000000100 Ry


ATOMIC_POSITIONS (angstrom)
S             0.0000000000        0.0000000000       -0.1886137576
O             0.0000000000        0.0000000000        1.3966137576



     Writing config-only to output data dir ./scratch/so.save/
     NEW-OLD atomic charge density approx. for the potential

     negative rho (up, down):  6.568E-05 2.787E-04
     Generating pointlists ...

     total cpu time spent up to now is       43.6 secs

     Self-consistent Calculation

     iteration #  1     ecut=   100.00 Ry     beta= 0.70
     Davidson diagonalization with overlap

---- Real-time Memory Report at c_bands before calling an iterative solver
           353 MiB given to the printing process from OS
             0 MiB allocation reported by mallinfo(arena+hblkhd)
        178274 MiB available memory on the node where the printing process lives
------------------
     ethr =  1.00E-06,  avg # of iterations =  8.0

     negative rho (up, down):  6.263E-04 7.194E-04

     total cpu time spent up to now is       44.4 secs

     total energy              =     -53.67715350 Ry
     estimated scf accuracy    <       0.00956124 Ry

     total magnetization       =     2.00 Bohr mag/cell
     absolute magnetization    =     2.07 Bohr mag/cell

     iteration #  2     ecut=   100.00 Ry     beta= 0.70
     Davidson diagonalization with overlap

---- Real-time Memory Report at c_bands before calling an iterative solver
           353 MiB given to the printing process from OS
             0 MiB allocation reported by mallinfo(arena+hblkhd)
        178270 MiB available memory on the node where the printing process lives
------------------
     ethr =  7.97E-05,  avg # of iterations =  3.0

     negative rho (up, down):  4.943E-04 5.699E-04

     total cpu time spent up to now is       44.9 secs

     total energy              =     -53.67410516 Ry
     estimated scf accuracy    <       0.06084334 Ry

     total magnetization       =     2.00 Bohr mag/cell
     absolute magnetization    =     2.07 Bohr mag/cell

     iteration #  3     ecut=   100.00 Ry     beta= 0.70
     Davidson diagonalization with overlap

---- Real-time Memory Report at c_bands before calling an iterative solver
           353 MiB given to the printing process from OS
             0 MiB allocation reported by mallinfo(arena+hblkhd)
        178270 MiB available memory on the node where the printing process lives
------------------
     ethr =  7.97E-05,  avg # of iterations =  3.0

     negative rho (up, down):  1.996E-04 2.344E-04

     total cpu time spent up to now is       45.5 secs

     total energy              =     -53.68245921 Ry
     estimated scf accuracy    <       0.00012782 Ry

     total magnetization       =     2.00 Bohr mag/cell
     absolute magnetization    =     2.07 Bohr mag/cell

     iteration #  4     ecut=   100.00 Ry     beta= 0.70
     Davidson diagonalization with overlap

---- Real-time Memory Report at c_bands before calling an iterative solver
           353 MiB given to the printing process from OS
             0 MiB allocation reported by mallinfo(arena+hblkhd)
        178270 MiB available memory on the node where the printing process lives
------------------
     ethr =  1.07E-06,  avg # of iterations =  3.0

     negative rho (up, down):  1.709E-05 1.951E-05

     total cpu time spent up to now is       46.0 secs

     total energy              =     -53.68250136 Ry
     estimated scf accuracy    <       0.00006445 Ry

     total magnetization       =     2.00 Bohr mag/cell
     absolute magnetization    =     2.07 Bohr mag/cell

     iteration #  5     ecut=   100.00 Ry     beta= 0.70
     Davidson diagonalization with overlap

---- Real-time Memory Report at c_bands before calling an iterative solver
           353 MiB given to the printing process from OS
             0 MiB allocation reported by mallinfo(arena+hblkhd)
        178270 MiB available memory on the node where the printing process lives
------------------
     ethr =  5.37E-07,  avg # of iterations =  2.0

     negative rho (up, down):  3.617E-06 3.937E-06

     total cpu time spent up to now is       46.5 secs

     total energy              =     -53.68250975 Ry
     estimated scf accuracy    <       0.00000067 Ry

     total magnetization       =     2.00 Bohr mag/cell
     absolute magnetization    =     2.07 Bohr mag/cell

     iteration #  6     ecut=   100.00 Ry     beta= 0.70
     Davidson diagonalization with overlap

---- Real-time Memory Report at c_bands before calling an iterative solver
           353 MiB given to the printing process from OS
             0 MiB allocation reported by mallinfo(arena+hblkhd)
        178268 MiB available memory on the node where the printing process lives
------------------
     ethr =  5.54E-09,  avg # of iterations =  5.0

     negative rho (up, down):  3.681E-06 4.005E-06

     total cpu time spent up to now is       47.1 secs

     total energy              =     -53.68251051 Ry
     estimated scf accuracy    <       0.00000072 Ry

     total magnetization       =     2.00 Bohr mag/cell
     absolute magnetization    =     2.07 Bohr mag/cell

     iteration #  7     ecut=   100.00 Ry     beta= 0.70
     Davidson diagonalization with overlap

---- Real-time Memory Report at c_bands before calling an iterative solver
           353 MiB given to the printing process from OS
             0 MiB allocation reported by mallinfo(arena+hblkhd)
        178268 MiB available memory on the node where the printing process lives
------------------
     ethr =  5.54E-09,  avg # of iterations =  1.5

     negative rho (up, down):  5.930E-07 6.736E-07

     total cpu time spent up to now is       47.7 secs

     total energy              =     -53.68251054 Ry
     estimated scf accuracy    <       0.00000012 Ry

     total magnetization       =     2.00 Bohr mag/cell
     absolute magnetization    =     2.07 Bohr mag/cell

     iteration #  8     ecut=   100.00 Ry     beta= 0.70
     Davidson diagonalization with overlap

---- Real-time Memory Report at c_bands before calling an iterative solver
           353 MiB given to the printing process from OS
             0 MiB allocation reported by mallinfo(arena+hblkhd)
        178268 MiB available memory on the node where the printing process lives
------------------
     ethr =  1.02E-09,  avg # of iterations =  2.5

     negative rho (up, down):  1.331E-08 1.869E-08

     total cpu time spent up to now is       48.2 secs

     total energy              =     -53.68251058 Ry
     estimated scf accuracy    <       0.00000001 Ry

     total magnetization       =     2.00 Bohr mag/cell
     absolute magnetization    =     2.07 Bohr mag/cell

     iteration #  9     ecut=   100.00 Ry     beta= 0.70
     Davidson diagonalization with overlap

---- Real-time Memory Report at c_bands before calling an iterative solver
           353 MiB given to the printing process from OS
             0 MiB allocation reported by mallinfo(arena+hblkhd)
        178268 MiB available memory on the node where the printing process lives
------------------
     ethr =  1.23E-10,  avg # of iterations =  1.5
 
     Magnetic moment per site  (integrated on atomic sphere of radius R)
     atom   1 (R=0.025)  charge=  0.5825  magn=  0.1095
     atom   2 (R=0.025)  charge=  2.8892  magn=  0.4305

     total cpu time spent up to now is       48.7 secs

     End of self-consistent calculation

 ------ SPIN UP ------------


          k = 0.0000 0.0000 0.0000 (855385 PWs)   bands (ev):

   -26.3073 -17.3130 -11.0129 -10.5106 -10.5106  -6.4549  -6.4549

     occupation numbers 
     1.0000   1.0000   1.0000   1.0000   1.0000   1.0000   1.0000

 ------ SPIN DOWN ----------


          k = 0.0000 0.0000 0.0000 (855385 PWs)   bands (ev):

   -25.3326 -15.9558 -10.3484  -9.1750  -9.1750  -4.7102  -4.7102

     occupation numbers 
     1.0000   1.0000   1.0000   1.0000   1.0000   0.0000   0.0000

     highest occupied, lowest unoccupied level (ev):    -6.4549   -4.7102

!    total energy              =     -53.68251059 Ry
     estimated scf accuracy    <          1.3E-09 Ry

     The total energy is the sum of the following terms:
     one-electron contribution =    -110.86908007 Ry
     hartree contribution      =      56.98769823 Ry
     xc contribution           =     -12.82053347 Ry
     ewald contribution        =      13.01940472 Ry

     total magnetization       =     2.00 Bohr mag/cell
     absolute magnetization    =     2.07 Bohr mag/cell

     convergence has been achieved in   9 iterations

     Forces acting on atoms (cartesian axes, Ry/au):

     atom    1 type  2   force =     0.00000000    0.00000000    0.11734821
     atom    2 type  1   force =     0.00000000    0.00000000   -0.11734821
     The non-local contrib.  to forces
     atom    1 type  2   force =     0.00000000    0.00000000    0.54059751
     atom    2 type  1   force =     0.00000000    0.00000000   -2.46861242
     The ionic contribution  to forces
     atom    1 type  2   force =    -0.00000000   -0.00000000   -8.00508873
     atom    2 type  1   force =     0.00000000    0.00000000    8.00508873
     The local contribution  to forces
     atom    1 type  2   force =     0.00000000   -0.00000000    7.59119966
     atom    2 type  1   force =     0.00000000   -0.00000000   -5.65366492
     The core correction contribution to forces
     atom    1 type  2   force =    -0.00000000   -0.00000000   -0.00922098
     atom    2 type  1   force =     0.00000000    0.00000000    0.00000000
     The Hubbard contrib.    to forces
     atom    1 type  2   force =     0.00000000    0.00000000    0.00000000
     atom    2 type  1   force =     0.00000000    0.00000000    0.00000000
     The SCF correction term to forces
     atom    1 type  2   force =     0.00000000   -0.00000000   -0.00003502
     atom    2 type  1   force =    -0.00000000    0.00000000   -0.00005537

     Total force =     0.165955     Total SCF correction =     0.000066
     Energy error            =      2.3E-02 Ry
     Gradient error          =      1.2E-01 Ry/Bohr

     number of scf cycles    =   4
     number of bfgs steps    =   3

     energy             old  =     -53.6592096727 Ry
     energy             new  =     -53.6825105865 Ry

     CASE: energy            _new < energy            _old

     new trust radius        =       0.1128063001 bohr
     new conv_thr            =       0.0000000100 Ry


ATOMIC_POSITIONS (angstrom)
S             0.0000000000        0.0000000000       -0.1289192344
O             0.0000000000        0.0000000000        1.3369192344



     Writing config-only to output data dir ./scratch/so.save/
     NEW-OLD atomic charge density approx. for the potential

     negative rho (up, down):  1.057E-04 6.334E-04
     Generating pointlists ...

     total cpu time spent up to now is       51.8 secs

     Self-consistent Calculation

     iteration #  1     ecut=   100.00 Ry     beta= 0.70
     Davidson diagonalization with overlap

---- Real-time Memory Report at c_bands before calling an iterative solver
           354 MiB given to the printing process from OS
             0 MiB allocation reported by mallinfo(arena+hblkhd)
        178262 MiB available memory on the node where the printing process lives
------------------
     ethr =  1.00E-06,  avg # of iterations =  9.0

     negative rho (up, down):  1.354E-03 1.603E-03

     total cpu time spent up to now is       52.7 secs

     total energy              =     -53.67844924 Ry
     estimated scf accuracy    <       0.02220535 Ry

     total magnetization       =     2.00 Bohr mag/cell
     absolute magnetization    =     2.06 Bohr mag/cell

     iteration #  2     ecut=   100.00 Ry     beta= 0.70
     Davidson diagonalization with overlap

---- Real-time Memory Report at c_bands before calling an iterative solver
           354 MiB given to the printing process from OS
             0 MiB allocation reported by mallinfo(arena+hblkhd)
        178259 MiB available memory on the node where the printing process lives
------------------
     ethr =  1.85E-04,  avg # of iterations =  3.0

     negative rho (up, down):  9.968E-04 1.195E-03

     total cpu time spent up to now is       53.2 secs

     total energy              =     -53.67695651 Ry
     estimated scf accuracy    <       0.07503062 Ry

     total magnetization       =     2.00 Bohr mag/cell
     absolute magnetization    =     2.07 Bohr mag/cell

     iteration #  3     ecut=   100.00 Ry     beta= 0.70
     Davidson diagonalization with overlap

---- Real-time Memory Report at c_bands before calling an iterative solver
           354 MiB given to the printing process from OS
             0 MiB allocation reported by mallinfo(arena+hblkhd)
        178259 MiB available memory on the node where the printing process lives
------------------
     ethr =  1.85E-04,  avg # of iterations =  2.0

     negative rho (up, down):  3.845E-04 4.812E-04

     total cpu time spent up to now is       53.8 secs

     total energy              =     -53.68950162 Ry
     estimated scf accuracy    <       0.00032292 Ry

     total magnetization       =     2.00 Bohr mag/cell
     absolute magnetization    =     2.06 Bohr mag/cell

     iteration #  4     ecut=   100.00 Ry     beta= 0.70
     Davidson diagonalization with overlap

---- Real-time Memory Report at c_bands before calling an iterative solver
           354 MiB given to the printing process from OS
             0 MiB allocation reported by mallinfo(arena+hblkhd)
        178259 MiB available memory on the node where the printing process lives
------------------
     ethr =  2.69E-06,  avg # of iterations =  4.5

     negative rho (up, down):  9.684E-05 1.257E-04

     total cpu time spent up to now is       54.4 secs

     total energy              =     -53.68960987 Ry
     estimated scf accuracy    <       0.00022425 Ry

     total magnetization       =     2.00 Bohr mag/cell
     absolute magnetization    =     2.06 Bohr mag/cell

     iteration #  5     ecut=   100.00 Ry     beta= 0.70
     Davidson diagonalization with overlap

---- Real-time Memory Report at c_bands before calling an iterative solver
           354 MiB given to the printing process from OS
             0 MiB allocation reported by mallinfo(arena+hblkhd)
        178259 MiB available memory on the node where the printing process lives
------------------
     ethr =  1.87E-06,  avg # of iterations =  2.0

     negative rho (up, down):  3.372E-08 5.492E-08

     total cpu time spent up to now is       54.9 secs

     total energy              =     -53.68963779 Ry
     estimated scf accuracy    <       0.00000571 Ry

     total magnetization       =     2.00 Bohr mag/cell
     absolute magnetization    =     2.06 Bohr mag/cell

     iteration #  6     ecut=   100.00 Ry     beta= 0.70
     Davidson diagonalization with overlap

---- Real-time Memory Report at c_bands before calling an iterative solver
           354 MiB given to the printing process from OS
             0 MiB allocation reported by mallinfo(arena+hblkhd)
        178259 MiB available memory on the node where the printing process lives
------------------
     ethr =  4.76E-08,  avg # of iterations =  3.5

     negative rho (up, down):  4.531E-06 5.353E-06

     total cpu time spent up to now is       55.4 secs

     total energy              =     -53.68964078 Ry
     estimated scf accuracy    <       0.00000222 Ry

     total magnetization       =     2.00 Bohr mag/cell
     absolute magnetization    =     2.06 Bohr mag/cell

     iteration #  7     ecut=   100.00 Ry     beta= 0.70
     Davidson diagonalization with overlap

---- Real-time Memory Report at c_bands before calling an iterative solver
           354 MiB given to the printing process from OS
             0 MiB allocation reported by mallinfo(arena+hblkhd)
        178259 MiB available memory on the node where the printing process lives
------------------
     ethr =  1.85E-08,  avg # of iterations =  2.0

     negative rho (up, down):  4.879E-07 6.090E-07

     total cpu time spent up to now is       56.0 secs

     total energy              =     -53.68964111 Ry
     estimated scf accuracy    <       0.00000007 Ry

     total magnetization       =     2.00 Bohr mag/cell
     absolute magnetization    =     2.06 Bohr mag/cell

     iteration #  8     ecut=   100.00 Ry     beta= 0.70
     Davidson diagonalization with overlap

---- Real-time Memory Report at c_bands before calling an iterative solver
           354 MiB given to the printing process from OS
             0 MiB allocation reported by mallinfo(arena+hblkhd)
        178259 MiB available memory on the node where the printing process lives
------------------
     ethr =  5.88E-10,  avg # of iterations =  3.5

     negative rho (up, down):  2.389E-07 3.116E-07

     total cpu time spent up to now is       56.5 secs

     total energy              =     -53.68964115 Ry
     estimated scf accuracy    <       0.00000002 Ry

     total magnetization       =     2.00 Bohr mag/cell
     absolute magnetization    =     2.06 Bohr mag/cell

     iteration #  9     ecut=   100.00 Ry     beta= 0.70
     Davidson diagonalization with overlap

---- Real-time Memory Report at c_bands before calling an iterative solver
           354 MiB given to the printing process from OS
             0 MiB allocation reported by mallinfo(arena+hblkhd)
        178259 MiB available memory on the node where the printing process lives
------------------
     ethr =  1.49E-10,  avg # of iterations =  2.0
 
     Magnetic moment per site  (integrated on atomic sphere of radius R)
     atom   1 (R=0.025)  charge=  0.5936  magn=  0.1113
     atom   2 (R=0.025)  charge=  2.9494  magn=  0.3980

     total cpu time spent up to now is       57.0 secs

     End of self-consistent calculation

 ------ SPIN UP ------------


          k = 0.0000 0.0000 0.0000 (855385 PWs)   bands (ev):

   -27.5155 -16.8572 -11.1691 -11.1260 -11.1260  -6.0295  -6.0295

     occupation numbers 
     1.0000   1.0000   1.0000   1.0000   1.0000   1.0000   1.0000

 ------ SPIN DOWN ----------


          k = 0.0000 0.0000 0.0000 (855385 PWs)   bands (ev):

   -26.6785 -15.4578 -10.4531  -9.8740  -9.8740  -4.2525  -4.2525

     occupation numbers 
     1.0000   1.0000   1.0000   1.0000   1.0000   0.0000   0.0000

     highest occupied, lowest unoccupied level (ev):    -6.0295   -4.2525

!    total energy              =     -53.68964115 Ry
     estimated scf accuracy    <          1.2E-10 Ry

     The total energy is the sum of the following terms:
     one-electron contribution =    -114.41690393 Ry
     hartree contribution      =      58.72843911 Ry
     xc contribution           =     -12.97422241 Ry
     ewald contribution        =      14.97304609 Ry

     total magnetization       =     2.00 Bohr mag/cell
     absolute magnetization    =     2.06 Bohr mag/cell

     convergence has been achieved in   9 iterations

     Forces acting on atoms (cartesian axes, Ry/au):

     atom    1 type  2   force =     0.00000000    0.00000000   -0.07722101
     atom    2 type  1   force =     0.00000000    0.00000000    0.07722101
     The non-local contrib.  to forces
     atom    1 type  2   force =     0.00000000    0.00000000    0.30778400
     atom    2 type  1   force =     0.00000000    0.00000000   -2.45114184
     The ionic contribution  to forces
     atom    1 type  2   force =    -0.00000000   -0.00000000   -9.36668188
     atom    2 type  1   force =     0.00000000    0.00000000    9.36668188
     The local contribution  to forces
     atom    1 type  2   force =     0.00000000   -0.00000000    8.97641252
     atom    2 type  1   force =     0.00000000   -0.00000000   -6.83841474
     The core correction contribution to forces
     atom    1 type  2   force =    -0.00000000   -0.00000000    0.00516860
     atom    2 type  1   force =     0.00000000    0.00000000    0.00000000
     The Hubbard contrib.    to forces
     atom    1 type  2   force =     0.00000000    0.00000000    0.00000000
     atom    2 type  1   force =     0.00000000    0.00000000    0.00000000
     The SCF correction term to forces
     atom    1 type  2   force =    -0.00000000   -0.00000000    0.00001158
     atom    2 type  1   force =     0.00000000   -0.00000000    0.00001155

     Total force =     0.109207     Total SCF correction =     0.000016
     Energy error            =      7.1E-03 Ry
     Gradient error          =      7.7E-02 Ry/Bohr

     number of scf cycles    =   5
     number of bfgs steps    =   4

     energy             old  =     -53.6825105865 Ry
     energy             new  =     -53.6896411505 Ry

     CASE: energy            _new < energy            _old

     new trust radius        =       0.0447707834 bohr
     new conv_thr            =       0.0000000071 Ry


ATOMIC_POSITIONS (angstrom)
S             0.0000000000        0.0000000000       -0.1526109127
O             0.0000000000        0.0000000000        1.3606109127



     Writing config-only to output data dir ./scratch/so.save/
     NEW-OLD atomic charge density approx. for the potential

     negative rho (up, down):  5.983E-05 7.009E-04
     Generating pointlists ...

     total cpu time spent up to now is       61.2 secs

     Self-consistent Calculation

     iteration #  1     ecut=   100.00 Ry     beta= 0.70
     Davidson diagonalization with overlap

---- Real-time Memory Report at c_bands before calling an iterative solver
           354 MiB given to the printing process from OS
             0 MiB allocation reported by mallinfo(arena+hblkhd)
        178258 MiB available memory on the node where the printing process lives
------------------
     ethr =  1.00E-06,  avg # of iterations =  7.0

     negative rho (up, down):  3.878E-03 4.353E-03

     total cpu time spent up to now is       61.9 secs

     total energy              =     -53.69011028 Ry
     estimated scf accuracy    <       0.00397180 Ry

     total magnetization       =     2.00 Bohr mag/cell
     absolute magnetization    =     2.07 Bohr mag/cell

     iteration #  2     ecut=   100.00 Ry     beta= 0.70
     Davidson diagonalization with overlap

---- Real-time Memory Report at c_bands before calling an iterative solver
           354 MiB given to the printing process from OS
             0 MiB allocation reported by mallinfo(arena+hblkhd)
        178257 MiB available memory on the node where the printing process lives
------------------
     ethr =  3.31E-05,  avg # of iterations =  3.0

     negative rho (up, down):  2.920E-03 3.306E-03

     total cpu time spent up to now is       62.5 secs

     total energy              =     -53.68975573 Ry
     estimated scf accuracy    <       0.01463837 Ry

     total magnetization       =     2.00 Bohr mag/cell
     absolute magnetization    =     2.07 Bohr mag/cell

     iteration #  3     ecut=   100.00 Ry     beta= 0.70
     Davidson diagonalization with overlap

---- Real-time Memory Report at c_bands before calling an iterative solver
           354 MiB given to the printing process from OS
             0 MiB allocation reported by mallinfo(arena+hblkhd)
        178257 MiB available memory on the node where the printing process lives
------------------
     ethr =  3.31E-05,  avg # of iterations =  2.5

     negative rho (up, down):  1.174E-03 1.371E-03

     total cpu time spent up to now is       63.0 secs

     total energy              =     -53.69211126 Ry
     estimated scf accuracy    <       0.00008236 Ry

     total magnetization       =     2.00 Bohr mag/cell
     absolute magnetization    =     2.07 Bohr mag/cell

     iteration #  4     ecut=   100.00 Ry     beta= 0.70
     Davidson diagonalization with overlap

---- Real-time Memory Report at c_bands before calling an iterative solver
           354 MiB given to the printing process from OS
             0 MiB allocation reported by mallinfo(arena+hblkhd)
        178257 MiB available memory on the node where the printing process lives
------------------
     ethr =  6.86E-07,  avg # of iterations =  3.0

     negative rho (up, down):  2.137E-04 2.666E-04

     total cpu time spent up to now is       63.6 secs

     total energy              =     -53.69214062 Ry
     estimated scf accuracy    <       0.00002690 Ry

     total magnetization       =     2.00 Bohr mag/cell
     absolute magnetization    =     2.07 Bohr mag/cell

     iteration #  5     ecut=   100.00 Ry     beta= 0.70
     Davidson diagonalization with overlap

---- Real-time Memory Report at c_bands before calling an iterative solver
           354 MiB given to the printing process from OS
             0 MiB allocation reported by mallinfo(arena+hblkhd)
        178257 MiB available memory on the node where the printing process lives
------------------
     ethr =  2.24E-07,  avg # of iterations =  2.0

     negative rho (up, down):  4.591E-06 5.347E-06

     total cpu time spent up to now is       64.1 secs

     total energy              =     -53.69214577 Ry
     estimated scf accuracy    <       0.00000085 Ry

     total magnetization       =     2.00 Bohr mag/cell
     absolute magnetization    =     2.07 Bohr mag/cell

     iteration #  6     ecut=   100.00 Ry     beta= 0.70
     Davidson diagonalization with overlap

---- Real-time Memory Report at c_bands before calling an iterative solver
           354 MiB given to the printing process from OS
             0 MiB allocation reported by mallinfo(arena+hblkhd)
        178257 MiB available memory on the node where the printing process lives
------------------
     ethr =  7.08E-09,  avg # of iterations =  4.0

     negative rho (up, down):  2.792E-06 3.299E-06

     total cpu time spent up to now is       64.7 secs

     total energy              =     -53.69214622 Ry
     estimated scf accuracy    <       0.00000017 Ry

     total magnetization       =     2.00 Bohr mag/cell
     absolute magnetization    =     2.07 Bohr mag/cell

     iteration #  7     ecut=   100.00 Ry     beta= 0.70
     Davidson diagonalization with overlap

---- Real-time Memory Report at c_bands before calling an iterative solver
           354 MiB given to the printing process from OS
             0 MiB allocation reported by mallinfo(arena+hblkhd)
        178263 MiB available memory on the node where the printing process lives
------------------
     ethr =  1.41E-09,  avg # of iterations =  2.0

     negative rho (up, down):  3.170E-06 3.736E-06

     total cpu time spent up to now is       65.2 secs

     total energy              =     -53.69214626 Ry
     estimated scf accuracy    <       0.00000002 Ry

     total magnetization       =     2.00 Bohr mag/cell
     absolute magnetization    =     2.07 Bohr mag/cell

     iteration #  8     ecut=   100.00 Ry     beta= 0.70
     Davidson diagonalization with overlap

---- Real-time Memory Report at c_bands before calling an iterative solver
           354 MiB given to the printing process from OS
             0 MiB allocation reported by mallinfo(arena+hblkhd)
        178265 MiB available memory on the node where the printing process lives
------------------
     ethr =  1.88E-10,  avg # of iterations =  2.0
 
     Magnetic moment per site  (integrated on atomic sphere of radius R)
     atom   1 (R=0.025)  charge=  0.5874  magn=  0.1105
     atom   2 (R=0.025)  charge=  2.9233  magn=  0.4117

     total cpu time spent up to now is       65.7 secs

     End of self-consistent calculation

 ------ SPIN UP ------------


          k = 0.0000 0.0000 0.0000 (855385 PWs)   bands (ev):

   -27.0007 -17.0458 -11.1073 -10.8603 -10.8603  -6.2042  -6.2042

     occupation numbers 
     1.0000   1.0000   1.0000   1.0000   1.0000   1.0000   1.0000

 ------ SPIN DOWN ----------


          k = 0.0000 0.0000 0.0000 (855385 PWs)   bands (ev):

   -26.1096 -15.6616 -10.4123  -9.5728  -9.5728  -4.4410  -4.4410

     occupation numbers 
     1.0000   1.0000   1.0000   1.0000   1.0000   0.0000   0.0000

     highest occupied, lowest unoccupied level (ev):    -6.2042   -4.4410

!    total energy              =     -53.69214628 Ry
     estimated scf accuracy    <          5.6E-09 Ry

     The total energy is the sum of the following terms:
     one-electron contribution =    -112.95820344 Ry
     hartree contribution      =      58.01429068 Ry
     xc contribution           =     -12.90890670 Ry
     ewald contribution        =      14.16067318 Ry

     total magnetization       =     2.00 Bohr mag/cell
     absolute magnetization    =     2.07 Bohr mag/cell

     convergence has been achieved in   8 iterations

     Forces acting on atoms (cartesian axes, Ry/au):

     atom    1 type  2   force =     0.00000000    0.00000000    0.01690919
     atom    2 type  1   force =     0.00000000    0.00000000   -0.01690919
     The non-local contrib.  to forces
     atom    1 type  2   force =     0.00000000    0.00000000    0.42187068
     atom    2 type  1   force =     0.00000000    0.00000000   -2.48363061
     The ionic contribution  to forces
     atom    1 type  2   force =    -0.00000000   -0.00000000   -8.78767567
     atom    2 type  1   force =     0.00000000    0.00000000    8.78767567
     The local contribution  to forces
     atom    1 type  2   force =     0.00000000    0.00000000    8.38422419
     atom    2 type  1   force =     0.00000000   -0.00000000   -6.32109371
     The core correction contribution to forces
     atom    1 type  2   force =    -0.00000000   -0.00000000   -0.00161214
     atom    2 type  1   force =     0.00000000    0.00000000    0.00000000
     The Hubbard contrib.    to forces
     atom    1 type  2   force =     0.00000000    0.00000000    0.00000000
     atom    2 type  1   force =     0.00000000    0.00000000    0.00000000
     The SCF correction term to forces
     atom    1 type  2   force =     0.00000000   -0.00000000    0.00007820
     atom    2 type  1   force =    -0.00000000    0.00000000    0.00011553

     Total force =     0.023913     Total SCF correction =     0.000140
     Energy error            =      2.5E-03 Ry
     Gradient error          =      1.7E-02 Ry/Bohr

     number of scf cycles    =   6
     number of bfgs steps    =   5

     energy             old  =     -53.6896411505 Ry
     energy             new  =     -53.6921462756 Ry

     CASE: energy            _new < energy            _old

     new trust radius        =       0.0080424520 bohr
     new conv_thr            =       0.0000000017 Ry


ATOMIC_POSITIONS (angstrom)
S             0.0000000000        0.0000000000       -0.1483550304
O             0.0000000000        0.0000000000        1.3563550304



     Writing config-only to output data dir ./scratch/so.save/
     NEW-OLD atomic charge density approx. for the potential

     negative rho (up, down):  5.973E-06 4.121E-05
     Generating pointlists ...

     total cpu time spent up to now is       70.0 secs

     Self-consistent Calculation

     iteration #  1     ecut=   100.00 Ry     beta= 0.70
     Davidson diagonalization with overlap

---- Real-time Memory Report at c_bands before calling an iterative solver
           354 MiB given to the printing process from OS
             0 MiB allocation reported by mallinfo(arena+hblkhd)
        178266 MiB available memory on the node where the printing process lives
------------------
     ethr =  1.00E-06,  avg # of iterations =  5.0

     negative rho (up, down):  9.120E-05 1.125E-04

     total cpu time spent up to now is       70.6 secs

     total energy              =     -53.69223208 Ry
     estimated scf accuracy    <       0.00012812 Ry

     total magnetization       =     2.00 Bohr mag/cell
     absolute magnetization    =     2.07 Bohr mag/cell

     iteration #  2     ecut=   100.00 Ry     beta= 0.70
     Davidson diagonalization with overlap

---- Real-time Memory Report at c_bands before calling an iterative solver
           354 MiB given to the printing process from OS
             0 MiB allocation reported by mallinfo(arena+hblkhd)
        178266 MiB available memory on the node where the printing process lives
------------------
     ethr =  1.07E-06,  avg # of iterations =  3.0

     negative rho (up, down):  6.788E-05 8.430E-05

     total cpu time spent up to now is       71.2 secs

     total energy              =     -53.69222040 Ry
     estimated scf accuracy    <       0.00048757 Ry

     total magnetization       =     2.00 Bohr mag/cell
     absolute magnetization    =     2.07 Bohr mag/cell

     iteration #  3     ecut=   100.00 Ry     beta= 0.70
     Davidson diagonalization with overlap

---- Real-time Memory Report at c_bands before calling an iterative solver
           354 MiB given to the printing process from OS
             0 MiB allocation reported by mallinfo(arena+hblkhd)
        178266 MiB available memory on the node where the printing process lives
------------------
     ethr =  1.07E-06,  avg # of iterations =  2.5

     negative rho (up, down):  2.553E-05 3.177E-05

     total cpu time spent up to now is       71.7 secs

     total energy              =     -53.69229796 Ry
     estimated scf accuracy    <       0.00000197 Ry

     total magnetization       =     2.00 Bohr mag/cell
     absolute magnetization    =     2.07 Bohr mag/cell

     iteration #  4     ecut=   100.00 Ry     beta= 0.70
     Davidson diagonalization with overlap

---- Real-time Memory Report at c_bands before calling an iterative solver
           354 MiB given to the printing process from OS
             0 MiB allocation reported by mallinfo(arena+hblkhd)
        178265 MiB available memory on the node where the printing process lives
------------------
     ethr =  1.64E-08,  avg # of iterations =  3.0

     negative rho (up, down):  3.578E-06 4.280E-06

     total cpu time spent up to now is       72.3 secs

     total energy              =     -53.69229841 Ry
     estimated scf accuracy    <       0.00000062 Ry

     total magnetization       =     2.00 Bohr mag/cell
     absolute magnetization    =     2.07 Bohr mag/cell

     iteration #  5     ecut=   100.00 Ry     beta= 0.70
     Davidson diagonalization with overlap

---- Real-time Memory Report at c_bands before calling an iterative solver
           354 MiB given to the printing process from OS
             0 MiB allocation reported by mallinfo(arena+hblkhd)
        178265 MiB available memory on the node where the printing process lives
------------------
     ethr =  5.15E-09,  avg # of iterations =  2.0

     negative rho (up, down):  7.750E-08 1.066E-07

     total cpu time spent up to now is       72.8 secs

     total energy              =     -53.69229850 Ry
     estimated scf accuracy    <       0.00000001 Ry

     total magnetization       =     2.00 Bohr mag/cell
     absolute magnetization    =     2.07 Bohr mag/cell

     iteration #  6     ecut=   100.00 Ry     beta= 0.70
     Davidson diagonalization with overlap

---- Real-time Memory Report at c_bands before calling an iterative solver
           354 MiB given to the printing process from OS
             0 MiB allocation reported by mallinfo(arena+hblkhd)
        178265 MiB available memory on the node where the printing process lives
------------------
     ethr =  9.59E-11,  avg # of iterations =  4.5

     negative rho (up, down):  9.673E-08 1.302E-07

     total cpu time spent up to now is       73.4 secs

     total energy              =     -53.69229851 Ry
     estimated scf accuracy    <          4.1E-09 Ry

     total magnetization       =     2.00 Bohr mag/cell
     absolute magnetization    =     2.07 Bohr mag/cell

     iteration #  7     ecut=   100.00 Ry     beta= 0.70
     Davidson diagonalization with overlap

---- Real-time Memory Report at c_bands before calling an iterative solver
           354 MiB given to the printing process from OS
             0 MiB allocation reported by mallinfo(arena+hblkhd)
        178266 MiB available memory on the node where the printing process lives
------------------
     ethr =  3.41E-11,  avg # of iterations =  2.0
 
     Magnetic moment per site  (integrated on atomic sphere of radius R)
     atom   1 (R=0.025)  charge=  0.5884  magn=  0.1107
     atom   2 (R=0.025)  charge=  2.9280  magn=  0.4094

     total cpu time spent up to now is       73.8 secs

     End of self-consistent calculation

 ------ SPIN UP ------------


          k = 0.0000 0.0000 0.0000 (855385 PWs)   bands (ev):

   -27.0900 -17.0125 -11.1186 -10.9060 -10.9060  -6.1734  -6.1734

     occupation numbers 
     1.0000   1.0000   1.0000   1.0000   1.0000   1.0000   1.0000

 ------ SPIN DOWN ----------


          k = 0.0000 0.0000 0.0000 (855385 PWs)   bands (ev):

   -26.2087 -15.6255 -10.4197  -9.6246  -9.6246  -4.4078  -4.4078

     occupation numbers 
     1.0000   1.0000   1.0000   1.0000   1.0000   0.0000   0.0000

     highest occupied, lowest unoccupied level (ev):    -6.1734   -4.4078

!    total energy              =     -53.69229852 Ry
     estimated scf accuracy    <          9.1E-10 Ry

     The total energy is the sum of the following terms:
     one-electron contribution =    -113.21548486 Ry
     hartree contribution      =      58.14061340 Ry
     xc contribution           =     -12.92025112 Ry
     ewald contribution        =      14.30282406 Ry

     total magnetization       =     2.00 Bohr mag/cell
     absolute magnetization    =     2.07 Bohr mag/cell

     convergence has been achieved in   7 iterations

     Forces acting on atoms (cartesian axes, Ry/au):

     atom    1 type  2   force =     0.00000000    0.00000000    0.00187567
     atom    2 type  1   force =     0.00000000    0.00000000   -0.00187567
     The non-local contrib.  to forces
     atom    1 type  2   force =     0.00000000    0.00000000    0.40376787
     atom    2 type  1   force =     0.00000000    0.00000000   -2.48053453
     The ionic contribution  to forces
     atom    1 type  2   force =    -0.00000000   -0.00000000   -8.88767364
     atom    2 type  1   force =     0.00000000    0.00000000    8.88767364
     The local contribution  to forces
     atom    1 type  2   force =     0.00000000    0.00000000    8.48630647
     atom    2 type  1   force =     0.00000000   -0.00000000   -6.40902766
     The core correction contribution to forces
     atom    1 type  2   force =    -0.00000000    0.00000000   -0.00053084
     atom    2 type  1   force =     0.00000000    0.00000000    0.00000000
     The Hubbard contrib.    to forces
     atom    1 type  2   force =     0.00000000    0.00000000    0.00000000
     atom    2 type  1   force =     0.00000000    0.00000000    0.00000000
     The SCF correction term to forces
     atom    1 type  2   force =     0.00000000   -0.00000000   -0.00003713
     atom    2 type  1   force =     0.00000000   -0.00000000   -0.00003007

     Total force =     0.002653     Total SCF correction =     0.000048
     Energy error            =      1.5E-04 Ry
     Gradient error          =      1.9E-03 Ry/Bohr

     number of scf cycles    =   7
     number of bfgs steps    =   6

     energy             old  =     -53.6921462756 Ry
     energy             new  =     -53.6922985151 Ry

     CASE: energy            _new < energy            _old

     new trust radius        =       0.0010034265 bohr
     new conv_thr            =       0.0000000002 Ry


ATOMIC_POSITIONS (angstrom)
S             0.0000000000        0.0000000000       -0.1478240399
O             0.0000000000        0.0000000000        1.3558240399



     Writing config-only to output data dir ./scratch/so.save/
     NEW-OLD atomic charge density approx. for the potential

     negative rho (up, down):  5.260E-07 1.676E-06
     Generating pointlists ...

     total cpu time spent up to now is       78.7 secs

     Self-consistent Calculation

     iteration #  1     ecut=   100.00 Ry     beta= 0.70
     Davidson diagonalization with overlap

---- Real-time Memory Report at c_bands before calling an iterative solver
           355 MiB given to the printing process from OS
             0 MiB allocation reported by mallinfo(arena+hblkhd)
        178266 MiB available memory on the node where the printing process lives
------------------
     ethr =  1.00E-06,  avg # of iterations =  2.0

     Threshold (ethr) on eigenvalues was too large:
     Diagonalizing with lowered threshold

     Davidson diagonalization with overlap

---- Real-time Memory Report at c_bands before calling an iterative solver
           355 MiB given to the printing process from OS
             0 MiB allocation reported by mallinfo(arena+hblkhd)
        178266 MiB available memory on the node where the printing process lives
------------------
     ethr =  9.45E-09,  avg # of iterations =  4.0

     negative rho (up, down):  1.342E-05 1.582E-05

     total cpu time spent up to now is       79.6 secs

     total energy              =     -53.69229954 Ry
     estimated scf accuracy    <       0.00000171 Ry

     total magnetization       =     2.00 Bohr mag/cell
     absolute magnetization    =     2.07 Bohr mag/cell

     iteration #  2     ecut=   100.00 Ry     beta= 0.70
     Davidson diagonalization with overlap

---- Real-time Memory Report at c_bands before calling an iterative solver
           355 MiB given to the printing process from OS
             0 MiB allocation reported by mallinfo(arena+hblkhd)
        178266 MiB available memory on the node where the printing process lives
------------------
     ethr =  1.43E-08,  avg # of iterations =  3.0

     negative rho (up, down):  1.000E-05 1.187E-05

     total cpu time spent up to now is       80.1 secs

     total energy              =     -53.69229938 Ry
     estimated scf accuracy    <       0.00000606 Ry

     total magnetization       =     2.00 Bohr mag/cell
     absolute magnetization    =     2.07 Bohr mag/cell

     iteration #  3     ecut=   100.00 Ry     beta= 0.70
     Davidson diagonalization with overlap

---- Real-time Memory Report at c_bands before calling an iterative solver
           355 MiB given to the printing process from OS
             0 MiB allocation reported by mallinfo(arena+hblkhd)
        178266 MiB available memory on the node where the printing process lives
------------------
     ethr =  1.43E-08,  avg # of iterations =  2.5

     negative rho (up, down):  3.820E-06 4.616E-06

     total cpu time spent up to now is       80.7 secs

     total energy              =     -53.69230036 Ry
     estimated scf accuracy    <       0.00000004 Ry

     total magnetization       =     2.00 Bohr mag/cell
     absolute magnetization    =     2.07 Bohr mag/cell

     iteration #  4     ecut=   100.00 Ry     beta= 0.70
     Davidson diagonalization with overlap

---- Real-time Memory Report at c_bands before calling an iterative solver
           355 MiB given to the printing process from OS
             0 MiB allocation reported by mallinfo(arena+hblkhd)
        178266 MiB available memory on the node where the printing process lives
------------------
     ethr =  3.34E-10,  avg # of iterations =  2.0

     negative rho (up, down):  4.072E-07 5.241E-07

     total cpu time spent up to now is       81.2 secs

     total energy              =     -53.69230037 Ry
     estimated scf accuracy    <          8.1E-09 Ry

     total magnetization       =     2.00 Bohr mag/cell
     absolute magnetization    =     2.07 Bohr mag/cell

     iteration #  5     ecut=   100.00 Ry     beta= 0.70
     Davidson diagonalization with overlap

---- Real-time Memory Report at c_bands before calling an iterative solver
           355 MiB given to the printing process from OS
             0 MiB allocation reported by mallinfo(arena+hblkhd)
        178266 MiB available memory on the node where the printing process lives
------------------
     ethr =  6.73E-11,  avg # of iterations =  1.5

     negative rho (up, down):  2.821E-08 4.644E-08

     total cpu time spent up to now is       81.8 secs

     total energy              =     -53.69230037 Ry
     estimated scf accuracy    <          2.7E-10 Ry

     total magnetization       =     2.00 Bohr mag/cell
     absolute magnetization    =     2.07 Bohr mag/cell

     iteration #  6     ecut=   100.00 Ry     beta= 0.70
     Davidson diagonalization with overlap

---- Real-time Memory Report at c_bands before calling an iterative solver
           355 MiB given to the printing process from OS
             0 MiB allocation reported by mallinfo(arena+hblkhd)
        178266 MiB available memory on the node where the printing process lives
------------------
     ethr =  2.27E-12,  avg # of iterations =  3.5
 
     Magnetic moment per site  (integrated on atomic sphere of radius R)
     atom   1 (R=0.025)  charge=  0.5886  magn=  0.1107
     atom   2 (R=0.025)  charge=  2.9286  magn=  0.4091

     total cpu time spent up to now is       82.3 secs

     End of self-consistent calculation

 ------ SPIN UP ------------


          k = 0.0000 0.0000 0.0000 (855385 PWs)   bands (ev):

   -27.1011 -17.0084 -11.1199 -10.9117 -10.9117  -6.1695  -6.1695

     occupation numbers 
     1.0000   1.0000   1.0000   1.0000   1.0000   1.0000   1.0000

 ------ SPIN DOWN ----------


          k = 0.0000 0.0000 0.0000 (855385 PWs)   bands (ev):

   -26.2210 -15.6210 -10.4206  -9.6310  -9.6310  -4.4036  -4.4036

     occupation numbers 
     1.0000   1.0000   1.0000   1.0000   1.0000   0.0000   0.0000

     highest occupied, lowest unoccupied level (ev):    -6.1695   -4.4036

!    total energy              =     -53.69230037 Ry
     estimated scf accuracy    <          5.4E-11 Ry

     The total energy is the sum of the following terms:
     one-electron contribution =    -113.24758972 Ry
     hartree contribution      =      58.15627205 Ry
     xc contribution           =     -12.92165566 Ry
     ewald contribution        =      14.32067295 Ry

     total magnetization       =     2.00 Bohr mag/cell
     absolute magnetization    =     2.07 Bohr mag/cell

     convergence has been achieved in   6 iterations

     Forces acting on atoms (cartesian axes, Ry/au):

     atom    1 type  2   force =     0.00000000    0.00000000   -0.00005522
     atom    2 type  1   force =     0.00000000    0.00000000    0.00005522
     The non-local contrib.  to forces
     atom    1 type  2   force =     0.00000000    0.00000000    0.40144644
     atom    2 type  1   force =     0.00000000    0.00000000   -2.48008735
     The ionic contribution  to forces
     atom    1 type  2   force =    -0.00000000   -0.00000000   -8.90026918
     atom    2 type  1   force =     0.00000000    0.00000000    8.90026918
     The local contribution  to forces
     atom    1 type  2   force =     0.00000000    0.00000000    8.49910247
     atom    2 type  1   force =     0.00000000   -0.00000000   -6.42016744
     The core correction contribution to forces
     atom    1 type  2   force =     0.00000000    0.00000000   -0.00038661
     atom    2 type  1   force =     0.00000000    0.00000000    0.00000000
     The Hubbard contrib.    to forces
     atom    1 type  2   force =     0.00000000    0.00000000    0.00000000
     atom    2 type  1   force =     0.00000000    0.00000000    0.00000000
     The SCF correction term to forces
     atom    1 type  2   force =    -0.00000000   -0.00000000    0.00001146
     atom    2 type  1   force =    -0.00000000    0.00000000    0.00000065

     Total force =     0.000078     Total SCF correction =     0.000011
     SCF correction compared to forces is large: reduce conv_thr to get better values
     Energy error            =      1.9E-06 Ry
     Gradient error          =      5.5E-05 Ry/Bohr

     bfgs converged in   8 scf cycles and   7 bfgs steps
     (criteria: energy <  1.0E-04 Ry, force <  1.0E-03 Ry/Bohr)

     End of BFGS Geometry Optimization

     Final energy             =     -53.6923003727 Ry

     File ./scratch/so.bfgs deleted, as requested
Begin final coordinates

ATOMIC_POSITIONS (angstrom)
S             0.0000000000        0.0000000000       -0.1478240399
O             0.0000000000        0.0000000000        1.3558240399
End final coordinates



     Writing all to output data dir ./scratch/so.save/
 
     init_run     :      8.05s CPU      8.40s WALL (       1 calls)
     electrons    :     80.26s CPU     49.91s WALL (       8 calls)
     update_pot   :      9.72s CPU      4.94s WALL (       7 calls)
     forces       :      8.00s CPU      4.19s WALL (       8 calls)

     Called by init_run:
     wfcinit      :      0.40s CPU      0.26s WALL (       1 calls)
     wfcinit:atom :      0.00s CPU      0.00s WALL (       1 calls)
     wfcinit:wfcr :      0.34s CPU      0.20s WALL (       1 calls)
     potinit      :      0.90s CPU      0.54s WALL (       1 calls)
     hinit0       :      1.15s CPU      0.82s WALL (       1 calls)

     Called by electrons:
     c_bands      :     26.78s CPU     13.86s WALL (      69 calls)
     sum_band     :     13.47s CPU      6.93s WALL (      69 calls)
     v_of_rho     :     30.35s CPU     15.62s WALL (      76 calls)
     v_h          :      1.66s CPU      0.85s WALL (      76 calls)
     v_xc         :     31.65s CPU     16.27s WALL (      84 calls)
     mix_rho      :      6.07s CPU      3.14s WALL (      69 calls)

     Called by c_bands:
     init_us_2    :      0.13s CPU      0.07s WALL (     139 calls)
     init_us_2:cp :      0.13s CPU      0.07s WALL (     139 calls)
     cegterg      :     26.36s CPU     13.60s WALL (      69 calls)

     Called by sum_band:
     sum_band:wei :      0.01s CPU      0.01s WALL (      69 calls)
     sum_band:loo :      4.21s CPU      2.17s WALL (      69 calls)
     sum_band:buf :      0.00s CPU      0.00s WALL (      69 calls)
     sum_band:ini :      0.07s CPU      0.04s WALL (      69 calls)

     Called by *egterg:
     cdiaghg      :      0.11s CPU      0.07s WALL (     290 calls)
     cegterg:over :      0.33s CPU      0.17s WALL (     229 calls)
     cegterg:upda :      0.13s CPU      0.07s WALL (     229 calls)
     cegterg:last :      0.19s CPU      0.10s WALL (     194 calls)
     h_psi        :     25.40s CPU     13.04s WALL (     299 calls)
     g_psi        :      0.05s CPU      0.03s WALL (     229 calls)

     Called by h_psi:
     h_psi:calbec :      0.41s CPU      0.22s WALL (     299 calls)
     vloc_psi     :     24.81s CPU     12.72s WALL (     299 calls)
     add_vuspsi   :      0.09s CPU      0.05s WALL (     299 calls)

     General routines
     calbec       :      0.41s CPU      0.21s WALL (     331 calls)
     fft          :     24.21s CPU     12.45s WALL (    1573 calls)
     ffts         :      1.99s CPU      1.02s WALL (     138 calls)
     fftw         :     24.91s CPU     12.77s WALL (    3713 calls)
 
     Parallel routines
 
     PWSCF        :   1m48.88s CPU   1m38.64s WALL

 
   This run was terminated on:  12:15:17  19Sep2024            

=------------------------------------------------------------------------------=
   JOB DONE.
=------------------------------------------------------------------------------=
