
     Program PWSCF v.7.2 starts on 25Sep2024 at 12: 7:41 

     This program is part of the open-source Quantum ESPRESSO suite
     for quantum simulation of materials; please cite
         "P. Giannozzi et al., J. Phys.:Condens. Matter 21 395502 (2009);
         "P. Giannozzi et al., J. Phys.:Condens. Matter 29 465901 (2017);
         "P. Giannozzi et al., J. Chem. Phys. 152 154105 (2020);
          URL http://www.quantum-espresso.org", 
     in publications or presentations arising from this work. More details at
     http://www.quantum-espresso.org/quote

     Parallel version (MPI), running on     6 processors

     MPI processes distributed on     1 nodes
     4954 MiB available memory on the printing compute node when the environment starts

     Waiting for input...
     Reading input from standard input

     Current dimensions of program PWSCF are:
     Max number of different atomic species (ntypx) = 10
     Max number of k-points (npk) =  40000
     Max angular momentum in pseudopotentials (lmaxx) =  4
     WARNING: atomic wfc #  4 for atom typeS has zero norm

     R & G space division:  proc/nbgrp/npool/nimage =       6
     Subspace diagonalization in iterative solution of the eigenvalue problem:
     a serial algorithm will be used


     Parallelization info
     --------------------
     sticks:   dense  smooth     PW     G-vecs:    dense   smooth      PW
     Min        2123    2123    529               180125   180125   22507
     Max        2125    2125    531               180126   180126   22508
     Sum       12745   12745   3181              1080751  1080751  135043

     Using Slab Decomposition



     bravais-lattice index     =            1
     lattice parameter (alat)  =      20.0000  a.u.
     unit-cell volume          =    8000.0000 (a.u.)^3
     number of atoms/cell      =            2
     number of atomic types    =            2
     number of electrons       =        12.00 (up:   7.00, down:   5.00)
     number of Kohn-Sham states=            7
     kinetic-energy cutoff     =     100.0000  Ry
     charge density cutoff     =     400.0000  Ry
     scf convergence threshold =      1.0E-08
     mixing beta               =       0.7000
     number of iterations used =            8  plain     mixing
     Exchange-correlation=  SLA  PW   PBX  PBC
                           (   1   4   3   4   0   0   0)

     celldm(1)=  20.000000  celldm(2)=   0.000000  celldm(3)=   0.000000
     celldm(4)=   0.000000  celldm(5)=   0.000000  celldm(6)=   0.000000

     crystal axes: (cart. coord. in units of alat)
               a(1) = (   1.000000   0.000000   0.000000 )  
               a(2) = (   0.000000   1.000000   0.000000 )  
               a(3) = (   0.000000   0.000000   1.000000 )  

     reciprocal axes: (cart. coord. in units 2 pi/alat)
               b(1) = (  1.000000  0.000000  0.000000 )  
               b(2) = (  0.000000  1.000000  0.000000 )  
               b(3) = (  0.000000  0.000000  1.000000 )  


     PseudoPot. # 1 for O  read from file:
     ../pseudo/O.pbe-tm-new-gipaw-dc.UPF
     MD5 check sum: cd70c9dcf1f7d755502eb127a1501eea
     Pseudo is Norm-conserving, Zval =  6.0
     Generated by new atomic code, or converted to UPF format
     Using radial grid of 1469 points,  1 beta functions with: 
                l(1) =   0

     PseudoPot. # 2 for S  read from file:
     ../pseudo/S.pbe-tm-gipaw-new-dc.UPF
     MD5 check sum: 3ec8f3b6d40e085fa371b22de74559cc
     Pseudo is Norm-conserving + core correction, Zval =  6.0
     Generated by new atomic code, or converted to UPF format
     Using radial grid of 1539 points,  2 beta functions with: 
                l(1) =   0
                l(2) =   1

     atomic species   valence    mass     pseudopotential
        O              6.00    16.00000     O ( 1.00)
        S              6.00    32.00000     S ( 1.00)

     Starting magnetic structure 
     atomic species   magnetization
        O            0.000
        S            0.000

      8 Sym. Ops. (no inversion) found


                                    s                        frac. trans.

      isym =  1     identity                                     

 cryst.   s( 1) = (     1          0          0      )
                  (     0          1          0      )
                  (     0          0          1      )

 cart.    s( 1) = (  1.0000000  0.0000000  0.0000000 )
                  (  0.0000000  1.0000000  0.0000000 )
                  (  0.0000000  0.0000000  1.0000000 )


      isym =  2     180 deg rotation - cart. axis [0,0,1]        

 cryst.   s( 2) = (    -1          0          0      )
                  (     0         -1          0      )
                  (     0          0          1      )

 cart.    s( 2) = ( -1.0000000  0.0000000  0.0000000 )
                  (  0.0000000 -1.0000000  0.0000000 )
                  (  0.0000000  0.0000000  1.0000000 )


      isym =  3      90 deg rotation - cart. axis [0,0,-1]       

 cryst.   s( 3) = (     0         -1          0      )
                  (     1          0          0      )
                  (     0          0          1      )

 cart.    s( 3) = (  0.0000000  1.0000000  0.0000000 )
                  ( -1.0000000  0.0000000  0.0000000 )
                  (  0.0000000  0.0000000  1.0000000 )


      isym =  4      90 deg rotation - cart. axis [0,0,1]        

 cryst.   s( 4) = (     0          1          0      )
                  (    -1          0          0      )
                  (     0          0          1      )

 cart.    s( 4) = (  0.0000000 -1.0000000  0.0000000 )
                  (  1.0000000  0.0000000  0.0000000 )
                  (  0.0000000  0.0000000  1.0000000 )


      isym =  5     inv. 180 deg rotation - cart. axis [0,1,0]   

 cryst.   s( 5) = (     1          0          0      )
                  (     0         -1          0      )
                  (     0          0          1      )

 cart.    s( 5) = (  1.0000000  0.0000000  0.0000000 )
                  (  0.0000000 -1.0000000  0.0000000 )
                  (  0.0000000  0.0000000  1.0000000 )


      isym =  6     inv. 180 deg rotation - cart. axis [1,0,0]   

 cryst.   s( 6) = (    -1          0          0      )
                  (     0          1          0      )
                  (     0          0          1      )

 cart.    s( 6) = ( -1.0000000  0.0000000  0.0000000 )
                  (  0.0000000  1.0000000  0.0000000 )
                  (  0.0000000  0.0000000  1.0000000 )


      isym =  7     inv. 180 deg rotation - cart. axis [1,1,0]   

 cryst.   s( 7) = (     0         -1          0      )
                  (    -1          0          0      )
                  (     0          0          1      )

 cart.    s( 7) = (  0.0000000 -1.0000000  0.0000000 )
                  ( -1.0000000  0.0000000  0.0000000 )
                  (  0.0000000  0.0000000  1.0000000 )


      isym =  8     inv. 180 deg rotation - cart. axis [1,-1,0]  

 cryst.   s( 8) = (     0          1          0      )
                  (     1          0          0      )
                  (     0          0          1      )

 cart.    s( 8) = (  0.0000000  1.0000000  0.0000000 )
                  (  1.0000000  0.0000000  0.0000000 )
                  (  0.0000000  0.0000000  1.0000000 )


     point group C_4v (4mm) 
     there are  5 classes
     the character table:

       E     2C4   C2    2s_v  2s_d 
A_1    1.00  1.00  1.00  1.00  1.00
A_2    1.00  1.00  1.00 -1.00 -1.00
B_1    1.00 -1.00  1.00  1.00 -1.00
B_2    1.00 -1.00  1.00 -1.00  1.00
E      2.00  0.00 -2.00  0.00  0.00

     the symmetry operations in each class and the name of the first element:

     E        1
          identity                                               
     2C4      3    4
           90 deg rotation - cart. axis [0,0,-1]                 
     C2       2
          180 deg rotation - cart. axis [0,0,1]                  
     2s_v     5    6
          inv. 180 deg rotation - cart. axis [0,1,0]             
     2s_d     7    8
          inv. 180 deg rotation - cart. axis [1,1,0]             

   Cartesian axes

     site n.     atom                  positions (alat units)
         1           S   tau(   1) = (   0.0000000   0.0000000  -0.0139673  )
         2           O   tau(   2) = (   0.0000000   0.0000000   0.1281068  )

   Crystallographic axes

     site n.     atom                  positions (cryst. coord.)
         1           S   tau(   1) = (  0.0000000  0.0000000 -0.0139673  )
         2           O   tau(   2) = (  0.0000000  0.0000000  0.1281068  )

     number of k points=     1
                       cart. coord. in units 2pi/alat
        k(    1) = (   0.0000000   0.0000000   0.0000000), wk =   1.0000000

                       cryst. coord.
        k(    1) = (   0.0000000   0.0000000   0.0000000), wk =   1.0000000

     Dense  grid:  1080751 G-vectors     FFT dimensions: ( 128, 128, 128)

     Dynamical RAM for                 wfc:       2.40 MB

     Dynamical RAM for     wfc (w. buffer):       7.21 MB

     Dynamical RAM for           str. fact:       5.50 MB

     Dynamical RAM for           local pot:       0.00 MB

     Dynamical RAM for          nlocal pot:       1.72 MB

     Dynamical RAM for                qrad:       0.28 MB

     Dynamical RAM for          rho,v,vnew:      32.99 MB

     Dynamical RAM for               rhoin:      11.00 MB

     Dynamical RAM for            rho*nmix:      87.95 MB

     Dynamical RAM for           G-vectors:      11.68 MB

     Dynamical RAM for          h,s,v(r/c):       0.01 MB

     Dynamical RAM for          <psi|beta>:       0.00 MB

     Dynamical RAM for                 psi:       4.81 MB

     Dynamical RAM for                hpsi:       4.81 MB

     Dynamical RAM for      wfcinit/wfcrot:      12.38 MB

     Estimated static dynamical RAM per process >      95.12 MB

     Estimated max dynamical RAM per process >     195.45 MB

     Estimated total dynamical RAM >       1.15 GB

     Check: negative core charge=   -0.000001
     Generating pointlists ...
     new r_m :   0.0586 (alat units)  1.1721 (a.u.) for type    1
     new r_m :   0.0586 (alat units)  1.1721 (a.u.) for type    2

     Initial potential from superposition of free atoms

     starting charge      11.0000, renormalised to      12.0000

     negative rho (up, down):  1.849E-05 1.849E-05
     Starting wfcs are   18 randomized atomic wfcs

     total cpu time spent up to now is        2.8 secs

     Self-consistent Calculation

     iteration #  1     ecut=   100.00 Ry     beta= 0.70
     Davidson diagonalization with overlap

---- Real-time Memory Report at c_bands before calling an iterative solver
           172 MiB given to the printing process from OS
             0 MiB allocation reported by mallinfo(arena+hblkhd)
          4355 MiB available memory on the node where the printing process lives
------------------
     ethr =  1.00E-04,  avg # of iterations =  5.0

     negative rho (up, down):  1.042E-06 3.006E-06

     total cpu time spent up to now is        5.9 secs

     total energy              =     -52.96997444 Ry
     estimated scf accuracy    <       1.17081286 Ry

     total magnetization       =     2.00 Bohr mag/cell
     absolute magnetization    =     2.00 Bohr mag/cell

     iteration #  2     ecut=   100.00 Ry     beta= 0.70
     Davidson diagonalization with overlap

---- Real-time Memory Report at c_bands before calling an iterative solver
           237 MiB given to the printing process from OS
             0 MiB allocation reported by mallinfo(arena+hblkhd)
          3693 MiB available memory on the node where the printing process lives
------------------
     ethr =  9.76E-03,  avg # of iterations =  3.0

     negative rho (up, down):  6.576E-07 2.150E-06

     total cpu time spent up to now is        8.5 secs

     total energy              =     -53.40051523 Ry
     estimated scf accuracy    <       2.99271214 Ry

     total magnetization       =     2.00 Bohr mag/cell
     absolute magnetization    =     2.02 Bohr mag/cell

     iteration #  3     ecut=   100.00 Ry     beta= 0.70
     Davidson diagonalization with overlap

---- Real-time Memory Report at c_bands before calling an iterative solver
           247 MiB given to the printing process from OS
             0 MiB allocation reported by mallinfo(arena+hblkhd)
          3618 MiB available memory on the node where the printing process lives
------------------
     ethr =  9.76E-03,  avg # of iterations =  2.0

     negative rho (up, down):  2.058E-07 1.061E-06

     total cpu time spent up to now is       10.7 secs

     total energy              =     -53.65349695 Ry
     estimated scf accuracy    <       0.15397575 Ry

     total magnetization       =     2.00 Bohr mag/cell
     absolute magnetization    =     2.02 Bohr mag/cell

     iteration #  4     ecut=   100.00 Ry     beta= 0.70
     Davidson diagonalization with overlap

---- Real-time Memory Report at c_bands before calling an iterative solver
           259 MiB given to the printing process from OS
             0 MiB allocation reported by mallinfo(arena+hblkhd)
          3549 MiB available memory on the node where the printing process lives
------------------
     ethr =  1.28E-03,  avg # of iterations =  2.5

     negative rho (up, down):  3.139E-08 2.654E-07

     total cpu time spent up to now is       13.0 secs

     total energy              =     -53.69029297 Ry
     estimated scf accuracy    <       0.00317907 Ry

     total magnetization       =     2.00 Bohr mag/cell
     absolute magnetization    =     2.03 Bohr mag/cell

     iteration #  5     ecut=   100.00 Ry     beta= 0.70
     Davidson diagonalization with overlap

---- Real-time Memory Report at c_bands before calling an iterative solver
           270 MiB given to the printing process from OS
             0 MiB allocation reported by mallinfo(arena+hblkhd)
          3497 MiB available memory on the node where the printing process lives
------------------
     ethr =  2.65E-05,  avg # of iterations =  2.5

     negative rho (up, down):  4.318E-10 1.236E-08

     total cpu time spent up to now is       15.4 secs

     total energy              =     -53.69209519 Ry
     estimated scf accuracy    <       0.00077842 Ry

     total magnetization       =     2.00 Bohr mag/cell
     absolute magnetization    =     2.05 Bohr mag/cell

     iteration #  6     ecut=   100.00 Ry     beta= 0.70
     Davidson diagonalization with overlap

---- Real-time Memory Report at c_bands before calling an iterative solver
           281 MiB given to the printing process from OS
             0 MiB allocation reported by mallinfo(arena+hblkhd)
          3430 MiB available memory on the node where the printing process lives
------------------
     ethr =  6.49E-06,  avg # of iterations =  2.0

     total cpu time spent up to now is       17.9 secs

     total energy              =     -53.69235197 Ry
     estimated scf accuracy    <       0.00002694 Ry

     total magnetization       =     2.00 Bohr mag/cell
     absolute magnetization    =     2.06 Bohr mag/cell

     iteration #  7     ecut=   100.00 Ry     beta= 0.70
     Davidson diagonalization with overlap

---- Real-time Memory Report at c_bands before calling an iterative solver
           292 MiB given to the printing process from OS
             0 MiB allocation reported by mallinfo(arena+hblkhd)
          3363 MiB available memory on the node where the printing process lives
------------------
     ethr =  2.25E-07,  avg # of iterations =  3.5

     total cpu time spent up to now is       20.7 secs

     total energy              =     -53.69239219 Ry
     estimated scf accuracy    <       0.00001043 Ry

     total magnetization       =     2.00 Bohr mag/cell
     absolute magnetization    =     2.06 Bohr mag/cell

     iteration #  8     ecut=   100.00 Ry     beta= 0.70
     Davidson diagonalization with overlap

---- Real-time Memory Report at c_bands before calling an iterative solver
           303 MiB given to the printing process from OS
             0 MiB allocation reported by mallinfo(arena+hblkhd)
          3330 MiB available memory on the node where the printing process lives
------------------
     ethr =  8.69E-08,  avg # of iterations =  3.0

     total cpu time spent up to now is       23.2 secs

     total energy              =     -53.69239866 Ry
     estimated scf accuracy    <       0.00001111 Ry

     total magnetization       =     2.00 Bohr mag/cell
     absolute magnetization    =     2.07 Bohr mag/cell

     iteration #  9     ecut=   100.00 Ry     beta= 0.70
     Davidson diagonalization with overlap

---- Real-time Memory Report at c_bands before calling an iterative solver
           314 MiB given to the printing process from OS
             0 MiB allocation reported by mallinfo(arena+hblkhd)
          3266 MiB available memory on the node where the printing process lives
------------------
     ethr =  8.69E-08,  avg # of iterations =  2.0

     total cpu time spent up to now is       25.5 secs

     total energy              =     -53.69240004 Ry
     estimated scf accuracy    <       0.00000069 Ry

     total magnetization       =     2.00 Bohr mag/cell
     absolute magnetization    =     2.07 Bohr mag/cell

     iteration # 10     ecut=   100.00 Ry     beta= 0.70
     Davidson diagonalization with overlap

---- Real-time Memory Report at c_bands before calling an iterative solver
           325 MiB given to the printing process from OS
             0 MiB allocation reported by mallinfo(arena+hblkhd)
          3199 MiB available memory on the node where the printing process lives
------------------
     ethr =  5.77E-09,  avg # of iterations =  2.5

     total cpu time spent up to now is       28.0 secs

     total energy              =     -53.69240028 Ry
     estimated scf accuracy    <       0.00000004 Ry

     total magnetization       =     2.00 Bohr mag/cell
     absolute magnetization    =     2.07 Bohr mag/cell

     iteration # 11     ecut=   100.00 Ry     beta= 0.70
     Davidson diagonalization with overlap

---- Real-time Memory Report at c_bands before calling an iterative solver
           325 MiB given to the printing process from OS
             0 MiB allocation reported by mallinfo(arena+hblkhd)
          3195 MiB available memory on the node where the printing process lives
------------------
     ethr =  3.30E-10,  avg # of iterations =  2.5

     total cpu time spent up to now is       30.6 secs

     total energy              =     -53.69240029 Ry
     estimated scf accuracy    <       0.00000002 Ry

     total magnetization       =     2.00 Bohr mag/cell
     absolute magnetization    =     2.07 Bohr mag/cell

     iteration # 12     ecut=   100.00 Ry     beta= 0.70
     Davidson diagonalization with overlap

---- Real-time Memory Report at c_bands before calling an iterative solver
           325 MiB given to the printing process from OS
             0 MiB allocation reported by mallinfo(arena+hblkhd)
          3196 MiB available memory on the node where the printing process lives
------------------
     ethr =  2.06E-10,  avg # of iterations =  1.5

     Magnetic moment per site  (integrated on atomic sphere of radius R)
     atom   1 (R=0.059)  charge=  1.3108  magn=  0.2484
     atom   2 (R=0.059)  charge=  4.0455  magn=  0.5284

     total cpu time spent up to now is       32.5 secs

     End of self-consistent calculation

 ------ SPIN UP ------------


          k = 0.0000 0.0000 0.0000 (135043 PWs)   bands (ev):

   -26.8721 -16.7789 -10.8919 -10.6834 -10.6834  -5.9392  -5.9392

     occupation numbers 
     1.0000   1.0000   1.0000   1.0000   1.0000   1.0000   1.0000

 ------ SPIN DOWN ----------


          k = 0.0000 0.0000 0.0000 (135043 PWs)   bands (ev):

   -25.9932 -15.3911 -10.1923  -9.4036  -9.4036  -4.1729  -4.1729

     occupation numbers 
     1.0000   1.0000   1.0000   1.0000   1.0000   0.0000   0.0000

     highest occupied, lowest unoccupied level (ev):    -5.9392   -4.1729

!    total energy              =     -53.69240029 Ry
     estimated scf accuracy    <          1.8E-09 Ry

     The total energy is the sum of the following terms:
     one-electron contribution =     -94.94226763 Ry
     hartree contribution      =      49.10480555 Ry
     xc contribution           =     -12.92204677 Ry
     ewald contribution        =       5.06710857 Ry

     total magnetization       =     2.00 Bohr mag/cell
     absolute magnetization    =     2.07 Bohr mag/cell

     convergence has been achieved in  12 iterations

     Writing all to output data dir ./scratch/so.save/

     init_run     :      2.39s CPU      2.61s WALL (       1 calls)
     electrons    :     28.88s CPU     29.87s WALL (       1 calls)

     Called by init_run:
     wfcinit      :      0.94s CPU      0.98s WALL (       1 calls)
     wfcinit:atom :      0.02s CPU      0.02s WALL (       2 calls)
     wfcinit:wfcr :      0.88s CPU      0.92s WALL (       2 calls)
     potinit      :      0.84s CPU      0.96s WALL (       1 calls)
     hinit0       :      0.20s CPU      0.23s WALL (       1 calls)

     Called by electrons:
     c_bands      :     12.93s CPU     13.25s WALL (      12 calls)
     sum_band     :      4.01s CPU      4.24s WALL (      12 calls)
     v_of_rho     :      9.45s CPU      9.79s WALL (      13 calls)
     v_h          :      0.55s CPU      0.56s WALL (      13 calls)
     v_xc         :      8.90s CPU      9.23s WALL (      13 calls)
     mix_rho      :      2.80s CPU      2.92s WALL (      12 calls)

     Called by c_bands:
     init_us_2    :      0.10s CPU      0.10s WALL (      50 calls)
     init_us_2:cp :      0.10s CPU      0.10s WALL (      50 calls)
     cegterg      :     12.81s CPU     13.12s WALL (      24 calls)

     Called by sum_band:
     sum_band:wei :      0.00s CPU      0.00s WALL (      12 calls)
     sum_band:loo :      2.25s CPU      2.31s WALL (      12 calls)
     sum_band:buf :      0.03s CPU      0.03s WALL (      24 calls)
     sum_band:ini :      0.05s CPU      0.05s WALL (      24 calls)

     Called by *egterg:
     cdiaghg      :      0.01s CPU      0.01s WALL (      88 calls)
     cegterg:over :      0.38s CPU      0.38s WALL (      64 calls)
     cegterg:upda :      0.22s CPU      0.22s WALL (      64 calls)
     cegterg:last :      0.36s CPU      0.36s WALL (      55 calls)
     h_psi        :     12.44s CPU     12.79s WALL (      90 calls)
     g_psi        :      0.03s CPU      0.03s WALL (      64 calls)

     Called by h_psi:
     h_psi:calbec :      0.17s CPU      0.18s WALL (      90 calls)
     vloc_psi     :     12.05s CPU     12.38s WALL (      90 calls)
     add_vuspsi   :      0.11s CPU      0.11s WALL (      90 calls)

     General routines
     calbec       :      0.17s CPU      0.18s WALL (      90 calls)
     fft          :      6.73s CPU      7.05s WALL (     245 calls)
     ffts         :      0.60s CPU      0.63s WALL (      24 calls)
     fftw         :     11.50s CPU     11.82s WALL (    1214 calls)

     Parallel routines

     PWSCF        :     31.49s CPU     32.84s WALL


   This run was terminated on:  12: 8:13  25Sep2024            

=------------------------------------------------------------------------------=
   JOB DONE.
=------------------------------------------------------------------------------=
