
     Program PWSCF v.7.2 starts on 31Jul2024 at 14:27:42 

     This program is part of the open-source Quantum ESPRESSO suite
     for quantum simulation of materials; please cite
         "P. Giannozzi et al., J. Phys.:Condens. Matter 21 395502 (2009);
         "P. Giannozzi et al., J. Phys.:Condens. Matter 29 465901 (2017);
         "P. Giannozzi et al., J. Chem. Phys. 152 154105 (2020);
          URL http://www.quantum-espresso.org", 
     in publications or presentations arising from this work. More details at
     http://www.quantum-espresso.org/quote

     Parallel version (MPI), running on     6 processors

     MPI processes distributed on     1 nodes
     9983 MiB available memory on the printing compute node when the environment starts

     Waiting for input...
     Reading input from standard input

     Current dimensions of program PWSCF are:
     Max number of different atomic species (ntypx) = 10
     Max number of k-points (npk) =  40000
     Max angular momentum in pseudopotentials (lmaxx) =  4
     WARNING: atomic wfc #  6 for atom typePb has zero norm
     Message from routine setup:
     the system is metallic, specify occupations

     R & G space division:  proc/nbgrp/npool/nimage =       6
     Subspace diagonalization in iterative solution of the eigenvalue problem:
     a serial algorithm will be used


     Parallelization info
     --------------------
     sticks:   dense  smooth     PW     G-vecs:    dense   smooth      PW
     Min        2123    2123    529               180125   180125   22507
     Max        2125    2125    531               180126   180126   22508
     Sum       12745   12745   3181              1080751  1080751  135043

     Using Slab Decomposition



     bravais-lattice index     =            1
     lattice parameter (alat)  =      20.0000  a.u.
     unit-cell volume          =    8000.0000 (a.u.)^3
     number of atoms/cell      =            2
     number of atomic types    =            2
     number of electrons       =        21.00 (up:  11.00, down:  10.00)
     number of Kohn-Sham states=           11
     kinetic-energy cutoff     =     100.0000  Ry
     charge density cutoff     =     400.0000  Ry
     scf convergence threshold =      1.0E-08
     mixing beta               =       0.7000
     number of iterations used =            8  plain     mixing
     Exchange-correlation=  SLA  PW   PBX  PBC
                           (   1   4   3   4   0   0   0)

     celldm(1)=  20.000000  celldm(2)=   0.000000  celldm(3)=   0.000000
     celldm(4)=   0.000000  celldm(5)=   0.000000  celldm(6)=   0.000000

     crystal axes: (cart. coord. in units of alat)
               a(1) = (   1.000000   0.000000   0.000000 )  
               a(2) = (   0.000000   1.000000   0.000000 )  
               a(3) = (   0.000000   0.000000   1.000000 )  

     reciprocal axes: (cart. coord. in units 2 pi/alat)
               b(1) = (  1.000000  0.000000  0.000000 )  
               b(2) = (  0.000000  1.000000  0.000000 )  
               b(3) = (  0.000000  0.000000  1.000000 )  


     PseudoPot. # 1 for F  read from file:
     ../pseudo/F_pbe-20080902.UPF
     MD5 check sum: c4eff971cdb459dd7b15ab7248b0a311
     Pseudo is Norm-conserving, Zval =  7.0
     Generated by new atomic code, or converted to UPF format
     Using radial grid of 1105 points,  1 beta functions with: 
                l(1) =   0

     PseudoPot. # 2 for Pb read from file:
     ../pseudo/Pb_pbe-20080902.UPF
     MD5 check sum: bcaa549d210b2aed628b5d2011f4d406
     Pseudo is Norm-conserving, Zval = 14.0
     Generated by new atomic code, or converted to UPF format
     Using radial grid of 1281 points,  2 beta functions with: 
                l(1) =   1
                l(2) =   2

     atomic species   valence    mass     pseudopotential
        F              7.00     9.00000     F ( 1.00)
        Pb            14.00   207.20000     Pb( 1.00)

     Starting magnetic structure 
     atomic species   magnetization
        F            0.000
        Pb           0.000

      8 Sym. Ops. (no inversion) found


                                    s                        frac. trans.

      isym =  1     identity                                     

 cryst.   s( 1) = (     1          0          0      )
                  (     0          1          0      )
                  (     0          0          1      )

 cart.    s( 1) = (  1.0000000  0.0000000  0.0000000 )
                  (  0.0000000  1.0000000  0.0000000 )
                  (  0.0000000  0.0000000  1.0000000 )


      isym =  2     180 deg rotation - cart. axis [0,0,1]        

 cryst.   s( 2) = (    -1          0          0      )
                  (     0         -1          0      )
                  (     0          0          1      )

 cart.    s( 2) = ( -1.0000000  0.0000000  0.0000000 )
                  (  0.0000000 -1.0000000  0.0000000 )
                  (  0.0000000  0.0000000  1.0000000 )


      isym =  3      90 deg rotation - cart. axis [0,0,-1]       

 cryst.   s( 3) = (     0         -1          0      )
                  (     1          0          0      )
                  (     0          0          1      )

 cart.    s( 3) = (  0.0000000  1.0000000  0.0000000 )
                  ( -1.0000000  0.0000000  0.0000000 )
                  (  0.0000000  0.0000000  1.0000000 )


      isym =  4      90 deg rotation - cart. axis [0,0,1]        

 cryst.   s( 4) = (     0          1          0      )
                  (    -1          0          0      )
                  (     0          0          1      )

 cart.    s( 4) = (  0.0000000 -1.0000000  0.0000000 )
                  (  1.0000000  0.0000000  0.0000000 )
                  (  0.0000000  0.0000000  1.0000000 )


      isym =  5     inv. 180 deg rotation - cart. axis [0,1,0]   

 cryst.   s( 5) = (     1          0          0      )
                  (     0         -1          0      )
                  (     0          0          1      )

 cart.    s( 5) = (  1.0000000  0.0000000  0.0000000 )
                  (  0.0000000 -1.0000000  0.0000000 )
                  (  0.0000000  0.0000000  1.0000000 )


      isym =  6     inv. 180 deg rotation - cart. axis [1,0,0]   

 cryst.   s( 6) = (    -1          0          0      )
                  (     0          1          0      )
                  (     0          0          1      )

 cart.    s( 6) = ( -1.0000000  0.0000000  0.0000000 )
                  (  0.0000000  1.0000000  0.0000000 )
                  (  0.0000000  0.0000000  1.0000000 )


      isym =  7     inv. 180 deg rotation - cart. axis [1,1,0]   

 cryst.   s( 7) = (     0         -1          0      )
                  (    -1          0          0      )
                  (     0          0          1      )

 cart.    s( 7) = (  0.0000000 -1.0000000  0.0000000 )
                  ( -1.0000000  0.0000000  0.0000000 )
                  (  0.0000000  0.0000000  1.0000000 )


      isym =  8     inv. 180 deg rotation - cart. axis [1,-1,0]  

 cryst.   s( 8) = (     0          1          0      )
                  (     1          0          0      )
                  (     0          0          1      )

 cart.    s( 8) = (  0.0000000  1.0000000  0.0000000 )
                  (  1.0000000  0.0000000  0.0000000 )
                  (  0.0000000  0.0000000  1.0000000 )


     point group C_4v (4mm) 
     there are  5 classes
     the character table:

       E     2C4   C2    2s_v  2s_d 
A_1    1.00  1.00  1.00  1.00  1.00
A_2    1.00  1.00  1.00 -1.00 -1.00
B_1    1.00 -1.00  1.00  1.00 -1.00
B_2    1.00 -1.00  1.00 -1.00  1.00
E      2.00  0.00 -2.00  0.00  0.00

     the symmetry operations in each class and the name of the first element:

     E        1
          identity                                               
     2C4      3    4
           90 deg rotation - cart. axis [0,0,-1]                 
     C2       2
          180 deg rotation - cart. axis [0,0,1]                  
     2s_v     5    6
          inv. 180 deg rotation - cart. axis [0,1,0]             
     2s_d     7    8
          inv. 180 deg rotation - cart. axis [1,1,0]             

   Cartesian axes

     site n.     atom                  positions (alat units)
         1           F   tau(   1) = (   0.0000000   0.0000000  -0.0286596  )
         2           Pb  tau(   2) = (   0.0000000   0.0000000   0.1703891  )

   Crystallographic axes

     site n.     atom                  positions (cryst. coord.)
         1           F   tau(   1) = (  0.0000000  0.0000000 -0.0286596  )
         2           Pb  tau(   2) = (  0.0000000  0.0000000  0.1703891  )

     number of k points=     1
                       cart. coord. in units 2pi/alat
        k(    1) = (   0.0000000   0.0000000   0.0000000), wk =   1.0000000

                       cryst. coord.
        k(    1) = (   0.0000000   0.0000000   0.0000000), wk =   1.0000000

     Dense  grid:  1080751 G-vectors     FFT dimensions: ( 128, 128, 128)

     Dynamical RAM for                 wfc:       3.78 MB

     Dynamical RAM for     wfc (w. buffer):      11.34 MB

     Dynamical RAM for           str. fact:       5.50 MB

     Dynamical RAM for           local pot:       0.00 MB

     Dynamical RAM for          nlocal pot:       3.09 MB

     Dynamical RAM for                qrad:       0.46 MB

     Dynamical RAM for          rho,v,vnew:      32.99 MB

     Dynamical RAM for               rhoin:      11.00 MB

     Dynamical RAM for            rho*nmix:      87.95 MB

     Dynamical RAM for           G-vectors:      11.68 MB

     Dynamical RAM for          h,s,v(r/c):       0.02 MB

     Dynamical RAM for          <psi|beta>:       0.00 MB

     Dynamical RAM for                 psi:       7.56 MB

     Dynamical RAM for                hpsi:       7.56 MB

     Dynamical RAM for      wfcinit/wfcrot:      11.69 MB

     Estimated static dynamical RAM per process >     100.80 MB

     Estimated max dynamical RAM per process >     203.89 MB

     Estimated total dynamical RAM >       1.19 GB
     Generating pointlists ...
     new r_m :   0.0821 (alat units)  1.6422 (a.u.) for type    1
     new r_m :   0.0821 (alat units)  1.6422 (a.u.) for type    2

     Initial potential from superposition of free atoms

     starting charge      20.9976, renormalised to      21.0000

     negative rho (up, down):  9.349E-04 9.349E-04
     Starting wfcs are   17 randomized atomic wfcs

     total cpu time spent up to now is        2.7 secs

     Self-consistent Calculation

     iteration #  1     ecut=   100.00 Ry     beta= 0.70
     Davidson diagonalization with overlap

---- Real-time Memory Report at c_bands before calling an iterative solver
           172 MiB given to the printing process from OS
             0 MiB allocation reported by mallinfo(arena+hblkhd)
          9337 MiB available memory on the node where the printing process lives
------------------
     ethr =  1.00E-04,  avg # of iterations =  4.0

     negative rho (up, down):  1.776E-04 2.735E-04

     total cpu time spent up to now is        6.4 secs

     total energy              =    -167.79060669 Ry
     estimated scf accuracy    <       0.38992504 Ry

     total magnetization       =     1.00 Bohr mag/cell
     absolute magnetization    =     1.00 Bohr mag/cell

     iteration #  2     ecut=   100.00 Ry     beta= 0.70
     Davidson diagonalization with overlap

---- Real-time Memory Report at c_bands before calling an iterative solver
           242 MiB given to the printing process from OS
             0 MiB allocation reported by mallinfo(arena+hblkhd)
          8667 MiB available memory on the node where the printing process lives
------------------
     ethr =  1.86E-03,  avg # of iterations =  5.0

     negative rho (up, down):  1.207E-04 1.765E-04

     total cpu time spent up to now is        9.8 secs

     total energy              =    -167.34065148 Ry
     estimated scf accuracy    <       3.20986252 Ry

     total magnetization       =     1.00 Bohr mag/cell
     absolute magnetization    =     1.01 Bohr mag/cell

     iteration #  3     ecut=   100.00 Ry     beta= 0.70
     Davidson diagonalization with overlap

---- Real-time Memory Report at c_bands before calling an iterative solver
           253 MiB given to the printing process from OS
             0 MiB allocation reported by mallinfo(arena+hblkhd)
          8590 MiB available memory on the node where the printing process lives
------------------
     ethr =  1.86E-03,  avg # of iterations =  4.5

     negative rho (up, down):  4.309E-05 7.601E-05

     total cpu time spent up to now is       13.1 secs

     total energy              =    -167.99632255 Ry
     estimated scf accuracy    <       0.09193392 Ry

     total magnetization       =     1.00 Bohr mag/cell
     absolute magnetization    =     1.01 Bohr mag/cell

     iteration #  4     ecut=   100.00 Ry     beta= 0.70
     Davidson diagonalization with overlap

---- Real-time Memory Report at c_bands before calling an iterative solver
           264 MiB given to the printing process from OS
             0 MiB allocation reported by mallinfo(arena+hblkhd)
          8529 MiB available memory on the node where the printing process lives
------------------
     ethr =  4.38E-04,  avg # of iterations =  1.0

     negative rho (up, down):  1.302E-05 6.698E-05

     total cpu time spent up to now is       15.8 secs

     total energy              =    -167.97181660 Ry
     estimated scf accuracy    <       0.05307910 Ry

     total magnetization       =     1.00 Bohr mag/cell
     absolute magnetization    =     1.01 Bohr mag/cell

     iteration #  5     ecut=   100.00 Ry     beta= 0.70
     Davidson diagonalization with overlap

---- Real-time Memory Report at c_bands before calling an iterative solver
           275 MiB given to the printing process from OS
             0 MiB allocation reported by mallinfo(arena+hblkhd)
          8468 MiB available memory on the node where the printing process lives
------------------
     ethr =  2.53E-04,  avg # of iterations =  3.0

     negative rho (up, down):  4.868E-06 4.432E-05

     total cpu time spent up to now is       18.8 secs

     total energy              =    -167.98632041 Ry
     estimated scf accuracy    <       0.00194271 Ry

     total magnetization       =     1.00 Bohr mag/cell
     absolute magnetization    =     1.03 Bohr mag/cell

     iteration #  6     ecut=   100.00 Ry     beta= 0.70
     Davidson diagonalization with overlap

---- Real-time Memory Report at c_bands before calling an iterative solver
           286 MiB given to the printing process from OS
             0 MiB allocation reported by mallinfo(arena+hblkhd)
          8401 MiB available memory on the node where the printing process lives
------------------
     ethr =  9.25E-06,  avg # of iterations =  4.0

     negative rho (up, down):  2.399E-08 4.618E-07

     total cpu time spent up to now is       21.9 secs

     total energy              =    -167.98537749 Ry
     estimated scf accuracy    <       0.00307571 Ry

     total magnetization       =     1.00 Bohr mag/cell
     absolute magnetization    =     1.03 Bohr mag/cell

     iteration #  7     ecut=   100.00 Ry     beta= 0.70
     Davidson diagonalization with overlap

---- Real-time Memory Report at c_bands before calling an iterative solver
           297 MiB given to the printing process from OS
             0 MiB allocation reported by mallinfo(arena+hblkhd)
          8334 MiB available memory on the node where the printing process lives
------------------
     ethr =  9.25E-06,  avg # of iterations =  3.0

     total cpu time spent up to now is       25.0 secs

     total energy              =    -167.98588775 Ry
     estimated scf accuracy    <       0.00001342 Ry

     total magnetization       =     1.00 Bohr mag/cell
     absolute magnetization    =     1.03 Bohr mag/cell

     iteration #  8     ecut=   100.00 Ry     beta= 0.70
     Davidson diagonalization with overlap

---- Real-time Memory Report at c_bands before calling an iterative solver
           308 MiB given to the printing process from OS
             0 MiB allocation reported by mallinfo(arena+hblkhd)
          8271 MiB available memory on the node where the printing process lives
------------------
     ethr =  6.39E-08,  avg # of iterations =  5.0

     negative rho (up, down):  2.819E-10 1.200E-08

     total cpu time spent up to now is       28.5 secs

     total energy              =    -167.98589885 Ry
     estimated scf accuracy    <       0.00003367 Ry

     total magnetization       =     1.00 Bohr mag/cell
     absolute magnetization    =     1.03 Bohr mag/cell

     iteration #  9     ecut=   100.00 Ry     beta= 0.70
     Davidson diagonalization with overlap

---- Real-time Memory Report at c_bands before calling an iterative solver
           319 MiB given to the printing process from OS
             0 MiB allocation reported by mallinfo(arena+hblkhd)
          8201 MiB available memory on the node where the printing process lives
------------------
     ethr =  6.39E-08,  avg # of iterations =  3.0

     total cpu time spent up to now is       31.8 secs

     total energy              =    -167.98590416 Ry
     estimated scf accuracy    <       0.00000043 Ry

     total magnetization       =     1.00 Bohr mag/cell
     absolute magnetization    =     1.03 Bohr mag/cell

     iteration # 10     ecut=   100.00 Ry     beta= 0.70
     Davidson diagonalization with overlap

---- Real-time Memory Report at c_bands before calling an iterative solver
           330 MiB given to the printing process from OS
             0 MiB allocation reported by mallinfo(arena+hblkhd)
          8133 MiB available memory on the node where the printing process lives
------------------
     ethr =  2.07E-09,  avg # of iterations =  4.5

     total cpu time spent up to now is       35.1 secs

     total energy              =    -167.98590436 Ry
     estimated scf accuracy    <       0.00000014 Ry

     total magnetization       =     1.00 Bohr mag/cell
     absolute magnetization    =     1.03 Bohr mag/cell

     iteration # 11     ecut=   100.00 Ry     beta= 0.70
     Davidson diagonalization with overlap

---- Real-time Memory Report at c_bands before calling an iterative solver
           330 MiB given to the printing process from OS
             0 MiB allocation reported by mallinfo(arena+hblkhd)
          8131 MiB available memory on the node where the printing process lives
------------------
     ethr =  6.78E-10,  avg # of iterations =  2.0

     total cpu time spent up to now is       38.1 secs

     total energy              =    -167.98590436 Ry
     estimated scf accuracy    <       0.00000003 Ry

     total magnetization       =     1.00 Bohr mag/cell
     absolute magnetization    =     1.03 Bohr mag/cell

     iteration # 12     ecut=   100.00 Ry     beta= 0.70
     Davidson diagonalization with overlap

---- Real-time Memory Report at c_bands before calling an iterative solver
           330 MiB given to the printing process from OS
             0 MiB allocation reported by mallinfo(arena+hblkhd)
          8132 MiB available memory on the node where the printing process lives
------------------
     ethr =  1.47E-10,  avg # of iterations =  4.0

     Magnetic moment per site  (integrated on atomic sphere of radius R)
     atom   1 (R=0.082)  charge=  6.6187  magn=  0.0237
     atom   2 (R=0.082)  charge=  9.1714  magn=  0.0556

     total cpu time spent up to now is       41.1 secs

     End of self-consistent calculation

 ------ SPIN UP ------------


          k = 0.0000 0.0000 0.0000 (135043 PWs)   bands (ev):

   -26.4584 -21.2389 -21.2389 -21.1291 -21.1291 -20.9539 -12.3607  -7.6789
    -7.5220  -7.5220  -3.3948

     occupation numbers 
     1.0000   1.0000   1.0000   1.0000   1.0000   1.0000   1.0000   1.0000
     1.0000   1.0000   1.0000

 ------ SPIN DOWN ----------


          k = 0.0000 0.0000 0.0000 (135043 PWs)   bands (ev):

   -26.4168 -21.0799 -21.0799 -21.0434 -21.0434 -20.8790 -11.8697  -7.5717
    -7.4353  -7.4353  -2.5621

     occupation numbers 
     1.0000   1.0000   1.0000   1.0000   1.0000   1.0000   1.0000   1.0000
     1.0000   1.0000   0.0000

     highest occupied, lowest unoccupied level (ev):    -3.3948   -2.5621

!    total energy              =    -167.98590436 Ry
     estimated scf accuracy    <          9.8E-09 Ry

     The total energy is the sum of the following terms:
     one-electron contribution =    -269.51596499 Ry
     hartree contribution      =     137.93864798 Ry
     xc contribution           =     -23.94182642 Ry
     ewald contribution        =     -12.46676092 Ry

     total magnetization       =     1.00 Bohr mag/cell
     absolute magnetization    =     1.03 Bohr mag/cell

     convergence has been achieved in  12 iterations

     Writing all to output data dir ./scratch/PbF.save/

     init_run     :      2.31s CPU      2.53s WALL (       1 calls)
     electrons    :     37.20s CPU     38.50s WALL (       1 calls)

     Called by init_run:
     wfcinit      :      0.91s CPU      0.95s WALL (       1 calls)
     wfcinit:atom :      0.01s CPU      0.02s WALL (       2 calls)
     wfcinit:wfcr :      0.85s CPU      0.90s WALL (       2 calls)
     potinit      :      0.87s CPU      0.99s WALL (       1 calls)
     hinit0       :      0.12s CPU      0.14s WALL (       1 calls)

     Called by electrons:
     c_bands      :     19.64s CPU     20.22s WALL (      12 calls)
     sum_band     :      5.49s CPU      5.72s WALL (      12 calls)
     v_of_rho     :      9.65s CPU     10.01s WALL (      13 calls)
     v_h          :      0.59s CPU      0.62s WALL (      13 calls)
     v_xc         :      9.06s CPU      9.39s WALL (      13 calls)
     mix_rho      :      2.82s CPU      2.94s WALL (      12 calls)

     Called by c_bands:
     init_us_2    :      0.17s CPU      0.17s WALL (      50 calls)
     init_us_2:cp :      0.17s CPU      0.17s WALL (      50 calls)
     cegterg      :     19.41s CPU     20.00s WALL (      24 calls)

     Called by sum_band:
     sum_band:wei :      0.00s CPU      0.00s WALL (      12 calls)
     sum_band:loo :      3.73s CPU      3.80s WALL (      12 calls)
     sum_band:buf :      0.05s CPU      0.05s WALL (      24 calls)
     sum_band:ini :      0.08s CPU      0.08s WALL (      24 calls)

     Called by *egterg:
     cdiaghg      :      0.02s CPU      0.02s WALL (     110 calls)
     cegterg:over :      0.69s CPU      0.69s WALL (      86 calls)
     cegterg:upda :      0.44s CPU      0.44s WALL (      86 calls)
     cegterg:last :      0.61s CPU      0.61s WALL (      51 calls)
     h_psi        :     18.11s CPU     18.73s WALL (     112 calls)
     g_psi        :      0.04s CPU      0.04s WALL (      86 calls)

     Called by h_psi:
     h_psi:calbec :      0.31s CPU      0.32s WALL (     112 calls)
     vloc_psi     :     17.40s CPU     18.01s WALL (     112 calls)
     add_vuspsi   :      0.23s CPU      0.23s WALL (     112 calls)

     General routines
     calbec       :      0.31s CPU      0.32s WALL (     112 calls)
     fft          :      6.79s CPU      7.14s WALL (     244 calls)
     ffts         :      0.60s CPU      0.63s WALL (      24 calls)
     fftw         :     16.98s CPU     17.53s WALL (    1752 calls)

     Parallel routines

     PWSCF        :     39.75s CPU     41.43s WALL


   This run was terminated on:  14:28:23  31Jul2024            

=------------------------------------------------------------------------------=
   JOB DONE.
=------------------------------------------------------------------------------=
