
     Program PWSCF v.7.2 starts on 19Sep2024 at 16:36:49 

     This program is part of the open-source Quantum ESPRESSO suite
     for quantum simulation of materials; please cite
         "P. Giannozzi et al., J. Phys.:Condens. Matter 21 395502 (2009);
         "P. Giannozzi et al., J. Phys.:Condens. Matter 29 465901 (2017);
         "P. Giannozzi et al., J. Chem. Phys. 152 154105 (2020);
          URL http://www.quantum-espresso.org", 
     in publications or presentations arising from this work. More details at
     http://www.quantum-espresso.org/quote

     Parallel version (MPI & OpenMP), running on     720 processor cores
     Number of MPI processes:               360
     Threads/MPI process:                     2

     MPI processes distributed on    10 nodes
     186210 MiB available memory on the printing compute node when the environment starts
 
     Waiting for input...
     Reading input from standard input

     Current dimensions of program PWSCF are:
     Max number of different atomic species (ntypx) = 10
     Max number of k-points (npk) =  40000
     Max angular momentum in pseudopotentials (lmaxx) =  4
     Message from routine setup:
     the system is metallic, specify occupations
 
     K-points division:     npool     =       2
     R & G space division:  proc/nbgrp/npool/nimage =     180
     Subspace diagonalization in iterative solution of the eigenvalue problem:
     a serial algorithm will be used

 
     Parallelization info
     --------------------
     sticks:   dense  smooth     PW     G-vecs:    dense   smooth      PW
     Min         242     242     60                38018    38018    4748
     Max         243     243     61                38026    38026    4757
     Sum       43577   43577  10893              6843987  6843987  855385
 
     Using Slab Decomposition
 


     bravais-lattice index     =            1
     lattice parameter (alat)  =      37.0000  a.u.
     unit-cell volume          =   50653.0000 (a.u.)^3
     number of atoms/cell      =            4
     number of atomic types    =            2
     number of electrons       =         7.00 (up:   4.00, down:   3.00)
     number of Kohn-Sham states=            4
     kinetic-energy cutoff     =     100.0000  Ry
     charge density cutoff     =     400.0000  Ry
     scf convergence threshold =      1.0E-08
     mixing beta               =       0.5000
     number of iterations used =            8  plain     mixing
     energy convergence thresh.=      1.0E-04
     force convergence thresh. =      1.0E-03
     Exchange-correlation=  SLA  PW   PBX  PBC
                           (   1   4   3   4   0   0   0)
     nstep                     =           50


     celldm(1)=  37.000000  celldm(2)=   0.000000  celldm(3)=   0.000000
     celldm(4)=   0.000000  celldm(5)=   0.000000  celldm(6)=   0.000000

     crystal axes: (cart. coord. in units of alat)
               a(1) = (   1.000000   0.000000   0.000000 )  
               a(2) = (   0.000000   1.000000   0.000000 )  
               a(3) = (   0.000000   0.000000   1.000000 )  

     reciprocal axes: (cart. coord. in units 2 pi/alat)
               b(1) = (  1.000000  0.000000  0.000000 )  
               b(2) = (  0.000000  1.000000  0.000000 )  
               b(3) = (  0.000000  0.000000  1.000000 )  


     PseudoPot. # 1 for Si read from file:
     ../pseudo/Si.pbe-tm-gipaw.UPF
     MD5 check sum: 744ed8b2dc623e0d56f5dfff7afbe95f
     Pseudo is Norm-conserving, Zval =  4.0
     Generated by new atomic code, or converted to UPF format
     Using radial grid of 1141 points,  2 beta functions with: 
                l(1) =   0
                l(2) =   1

     PseudoPot. # 2 for H  read from file:
     ../pseudo/H.pbe-tm-new-gipaw.UPF
     MD5 check sum: 0e5abdcbf773fd5bd1c97111569d22ab
     Pseudo is Norm-conserving, Zval =  1.0
     Generated by new atomic code, or converted to UPF format
     Using radial grid of 1261 points,  0 beta functions with: 

     atomic species   valence    mass     pseudopotential
        Si             4.00     1.00000     Si( 1.00)
        H              1.00     1.00000     H ( 1.00)

     Starting magnetic structure 
     atomic species   magnetization
        Si           0.000
        H            0.000

     No symmetry found


                                    s                        frac. trans.

      isym =  1     identity                                     

 cryst.   s( 1) = (     1          0          0      )
                  (     0          1          0      )
                  (     0          0          1      )

 cart.    s( 1) = (  1.0000000  0.0000000  0.0000000 )
                  (  0.0000000  1.0000000  0.0000000 )
                  (  0.0000000  0.0000000  1.0000000 )


     point group C_1 (1)    
     there are  1 classes
     the character table:

       E    
A      1.00

     the symmetry operations in each class and the name of the first element:

     E        1
          identity                                               

   Cartesian axes

     site n.     atom                  positions (alat units)
         1           Si  tau(   1) = (   0.2553650   0.2481569   0.2660939  )
         2           H   tau(   2) = (   0.3305565   0.2541259   0.2502610  )
         3           H   tau(   3) = (   0.2227099   0.1801647   0.2614972  )
         4           H   tau(   4) = (   0.2128422   0.3104248   0.2528147  )

   Crystallographic axes

     site n.     atom                  positions (cryst. coord.)
         1           Si  tau(   1) = (  0.2553650  0.2481569  0.2660939  )
         2           H   tau(   2) = (  0.3305565  0.2541259  0.2502610  )
         3           H   tau(   3) = (  0.2227099  0.1801647  0.2614972  )
         4           H   tau(   4) = (  0.2128422  0.3104248  0.2528147  )

     number of k points=     1
                       cart. coord. in units 2pi/alat
        k(    1) = (   0.0000000   0.0000000   0.0000000), wk =   1.0000000

                       cryst. coord.
        k(    1) = (   0.0000000   0.0000000   0.0000000), wk =   1.0000000

     Dense  grid:  6843987 G-vectors     FFT dimensions: ( 240, 240, 240)

     Dynamical RAM for                 wfc:       0.29 MB

     Dynamical RAM for     wfc (w. buffer):       0.29 MB

     Dynamical RAM for           str. fact:       1.16 MB

     Dynamical RAM for           local pot:       0.00 MB

     Dynamical RAM for          nlocal pot:       0.29 MB

     Dynamical RAM for                qrad:       0.28 MB

     Dynamical RAM for          rho,v,vnew:       8.75 MB

     Dynamical RAM for               rhoin:       2.92 MB

     Dynamical RAM for            rho*nmix:      18.57 MB

     Dynamical RAM for           G-vectors:       2.47 MB

     Dynamical RAM for          h,s,v(r/c):       0.00 MB

     Dynamical RAM for          <psi|beta>:       0.00 MB

     Dynamical RAM for                 psi:       0.58 MB

     Dynamical RAM for                hpsi:       0.58 MB

     Dynamical RAM for      wfcinit/wfcrot:       2.18 MB

     Estimated static dynamical RAM per process >      23.17 MB

     Estimated max dynamical RAM per process >     104.43 MB

     Estimated total dynamical RAM >      12.18 GB
     Generating pointlists ...
     new r_m :   0.0312 (alat units)  1.1533 (a.u.) for type    1
     new r_m :   0.0312 (alat units)  1.1533 (a.u.) for type    2

     Initial potential from superposition of free atoms

     starting charge       4.9716, renormalised to       7.0000

     negative rho (up, down):  4.285E-04 4.285E-04
     Starting wfcs are   15 randomized atomic wfcs

     total cpu time spent up to now is        7.8 secs

     Self-consistent Calculation

     iteration #  1     ecut=   100.00 Ry     beta= 0.50
     Davidson diagonalization with overlap

---- Real-time Memory Report at c_bands before calling an iterative solver
           160 MiB given to the printing process from OS
             0 MiB allocation reported by mallinfo(arena+hblkhd)
        181352 MiB available memory on the node where the printing process lives
------------------
     ethr =  1.00E-04,  avg # of iterations =  6.0

     negative rho (up, down):  1.250E-04 2.119E-04

     total cpu time spent up to now is        8.5 secs

     total energy              =     -11.18609002 Ry
     estimated scf accuracy    <       0.50692427 Ry

     total magnetization       =     1.00 Bohr mag/cell
     absolute magnetization    =     1.00 Bohr mag/cell

     iteration #  2     ecut=   100.00 Ry     beta= 0.50
     Davidson diagonalization with overlap

---- Real-time Memory Report at c_bands before calling an iterative solver
           196 MiB given to the printing process from OS
             0 MiB allocation reported by mallinfo(arena+hblkhd)
        180096 MiB available memory on the node where the printing process lives
------------------
     ethr =  7.24E-03,  avg # of iterations =  2.0

     negative rho (up, down):  4.130E-05 8.140E-05

     total cpu time spent up to now is        8.9 secs

     total energy              =     -11.24240567 Ry
     estimated scf accuracy    <       0.03021513 Ry

     total magnetization       =     1.00 Bohr mag/cell
     absolute magnetization    =     1.02 Bohr mag/cell

     iteration #  3     ecut=   100.00 Ry     beta= 0.50
     Davidson diagonalization with overlap

---- Real-time Memory Report at c_bands before calling an iterative solver
           198 MiB given to the printing process from OS
             0 MiB allocation reported by mallinfo(arena+hblkhd)
        179985 MiB available memory on the node where the printing process lives
------------------
     ethr =  4.32E-04,  avg # of iterations =  2.0

     negative rho (up, down):  7.864E-06 1.617E-05

     total cpu time spent up to now is        9.3 secs

     total energy              =     -11.25023686 Ry
     estimated scf accuracy    <       0.00221251 Ry

     total magnetization       =     1.00 Bohr mag/cell
     absolute magnetization    =     1.05 Bohr mag/cell

     iteration #  4     ecut=   100.00 Ry     beta= 0.50
     Davidson diagonalization with overlap

---- Real-time Memory Report at c_bands before calling an iterative solver
           201 MiB given to the printing process from OS
             0 MiB allocation reported by mallinfo(arena+hblkhd)
        179898 MiB available memory on the node where the printing process lives
------------------
     ethr =  3.16E-05,  avg # of iterations =  2.0

     negative rho (up, down):  4.234E-07 9.177E-06

     total cpu time spent up to now is        9.8 secs

     total energy              =     -11.25123997 Ry
     estimated scf accuracy    <       0.00010709 Ry

     total magnetization       =     1.00 Bohr mag/cell
     absolute magnetization    =     1.07 Bohr mag/cell

     iteration #  5     ecut=   100.00 Ry     beta= 0.50
     Davidson diagonalization with overlap

---- Real-time Memory Report at c_bands before calling an iterative solver
           203 MiB given to the printing process from OS
             0 MiB allocation reported by mallinfo(arena+hblkhd)
        179811 MiB available memory on the node where the printing process lives
------------------
     ethr =  1.53E-06,  avg # of iterations =  4.0

     negative rho (up, down):  5.249E-07 1.120E-05

     total cpu time spent up to now is       10.2 secs

     total energy              =     -11.25137495 Ry
     estimated scf accuracy    <       0.00000445 Ry

     total magnetization       =     1.00 Bohr mag/cell
     absolute magnetization    =     1.08 Bohr mag/cell

     iteration #  6     ecut=   100.00 Ry     beta= 0.50
     Davidson diagonalization with overlap

---- Real-time Memory Report at c_bands before calling an iterative solver
           206 MiB given to the printing process from OS
             0 MiB allocation reported by mallinfo(arena+hblkhd)
        179721 MiB available memory on the node where the printing process lives
------------------
     ethr =  6.36E-08,  avg # of iterations =  2.5

     negative rho (up, down):  1.555E-07 1.799E-06

     total cpu time spent up to now is       10.7 secs

     total energy              =     -11.25138041 Ry
     estimated scf accuracy    <       0.00000185 Ry

     total magnetization       =     1.00 Bohr mag/cell
     absolute magnetization    =     1.09 Bohr mag/cell

     iteration #  7     ecut=   100.00 Ry     beta= 0.50
     Davidson diagonalization with overlap

---- Real-time Memory Report at c_bands before calling an iterative solver
           208 MiB given to the printing process from OS
             0 MiB allocation reported by mallinfo(arena+hblkhd)
        179634 MiB available memory on the node where the printing process lives
------------------
     ethr =  2.64E-08,  avg # of iterations =  3.0

     negative rho (up, down):  1.089E-08 1.853E-08

     total cpu time spent up to now is       11.1 secs

     total energy              =     -11.25138119 Ry
     estimated scf accuracy    <       0.00000036 Ry

     total magnetization       =     1.00 Bohr mag/cell
     absolute magnetization    =     1.09 Bohr mag/cell

     iteration #  8     ecut=   100.00 Ry     beta= 0.50
     Davidson diagonalization with overlap

---- Real-time Memory Report at c_bands before calling an iterative solver
           211 MiB given to the printing process from OS
             0 MiB allocation reported by mallinfo(arena+hblkhd)
        179553 MiB available memory on the node where the printing process lives
------------------
     ethr =  5.11E-09,  avg # of iterations =  3.0

     negative rho (up, down):  1.642E-08 2.771E-08

     total cpu time spent up to now is       11.6 secs

     total energy              =     -11.25138185 Ry
     estimated scf accuracy    <       0.00000002 Ry

     total magnetization       =     1.00 Bohr mag/cell
     absolute magnetization    =     1.09 Bohr mag/cell

     iteration #  9     ecut=   100.00 Ry     beta= 0.50
     Davidson diagonalization with overlap

---- Real-time Memory Report at c_bands before calling an iterative solver
           213 MiB given to the printing process from OS
             0 MiB allocation reported by mallinfo(arena+hblkhd)
        179470 MiB available memory on the node where the printing process lives
------------------
     ethr =  2.96E-10,  avg # of iterations =  4.0
 
     Magnetic moment per site  (integrated on atomic sphere of radius R)
     atom   1 (R=0.031)  charge=  0.3535  magn=  0.0646
     atom   2 (R=0.031)  charge=  0.7066  magn= -0.0066
     atom   3 (R=0.031)  charge=  0.7221  magn= -0.0058
     atom   4 (R=0.031)  charge=  0.7121  magn= -0.0063

     total cpu time spent up to now is       12.0 secs

     End of self-consistent calculation

 ------ SPIN UP ------------


          k = 0.0000 0.0000 0.0000 (855385 PWs)   bands (ev):

   -13.3177  -8.9385  -8.8016  -4.8302

     occupation numbers 
     1.0000   1.0000   1.0000   1.0000

 ------ SPIN DOWN ----------


          k = 0.0000 0.0000 0.0000 (855385 PWs)   bands (ev):

   -12.7560  -8.8284  -8.6934  -2.8575

     occupation numbers 
     1.0000   1.0000   1.0000   0.0000

     highest occupied, lowest unoccupied level (ev):    -4.8302   -2.8575

!    total energy              =     -11.25138191 Ry
     estimated scf accuracy    <          7.3E-09 Ry

     The total energy is the sum of the following terms:
     one-electron contribution =     -26.52847130 Ry
     hartree contribution      =      13.63724300 Ry
     xc contribution           =      -4.34602458 Ry
     ewald contribution        =       5.98587097 Ry

     total magnetization       =     1.00 Bohr mag/cell
     absolute magnetization    =     1.09 Bohr mag/cell

     convergence has been achieved in   9 iterations

     Forces acting on atoms (cartesian axes, Ry/au):

     atom    1 type  1   force =     0.01414484    0.01629876    0.01955892
     atom    2 type  2   force =    -0.01848508   -0.00397902   -0.00433250
     atom    3 type  2   force =    -0.00046811   -0.00038330   -0.00919189
     atom    4 type  2   force =     0.00480835   -0.01193644   -0.00603452
     The non-local contrib.  to forces
     atom    1 type  1   force =     0.01741652    0.01461162   -0.00930703
     atom    2 type  2   force =     0.00000000    0.00000000    0.00000000
     atom    3 type  2   force =     0.00000000    0.00000000    0.00000000
     atom    4 type  2   force =     0.00000000    0.00000000    0.00000000
     The ionic contribution  to forces
     atom    1 type  1   force =     0.03618398    0.03377185    0.43644455
     atom    2 type  2   force =     1.10353635    0.08672430   -0.21057744
     atom    3 type  2   force =    -0.50407438   -1.05038721   -0.04933846
     atom    4 type  2   force =    -0.63564595    0.92989106   -0.17652865
     The local contribution  to forces
     atom    1 type  1   force =    -0.03945923   -0.03208958   -0.40761664
     atom    2 type  2   force =    -1.12202445   -0.09070405    0.20624258
     atom    3 type  2   force =     0.50360771    1.05000664    0.04014381
     atom    4 type  2   force =     0.64045587   -0.94183046    0.17049166
     The core correction contribution to forces
     atom    1 type  1   force =     0.00000000    0.00000000    0.00000000
     atom    2 type  2   force =     0.00000000    0.00000000    0.00000000
     atom    3 type  2   force =     0.00000000    0.00000000    0.00000000
     atom    4 type  2   force =     0.00000000    0.00000000    0.00000000
     The Hubbard contrib.    to forces
     atom    1 type  1   force =     0.00000000    0.00000000    0.00000000
     atom    2 type  2   force =     0.00000000    0.00000000    0.00000000
     atom    3 type  2   force =     0.00000000    0.00000000    0.00000000
     atom    4 type  2   force =     0.00000000    0.00000000    0.00000000
     The SCF correction term to forces
     atom    1 type  1   force =     0.00000386    0.00000495    0.00003769
     atom    2 type  2   force =     0.00000331    0.00000079    0.00000202
     atom    3 type  2   force =    -0.00000114   -0.00000266    0.00000242
     atom    4 type  2   force =    -0.00000128    0.00000302    0.00000212

     Total force =     0.038877     Total SCF correction =     0.000039

     BFGS Geometry Optimization
     Energy error            =      0.0E+00 Ry
     Gradient error          =      2.0E-02 Ry/Bohr

     number of scf cycles    =   1
     number of bfgs steps    =   0

     energy             new  =     -11.2513819146 Ry

     new trust radius        =       0.0291252038 bohr
     new conv_thr            =       0.0000000100 Ry


ATOMIC_POSITIONS (angstrom)
Si            5.0074177490        4.8674280184        5.2203501325
H             6.4623685024        4.9735676341        4.8977073387
H             4.3603130504        3.5273412673        5.1151358613
H             4.1699006982        6.0716630802        4.9468066674



     Writing config-only to output data dir ./scratch/sih3.save/
     NEW-OLD atomic charge density approx. for the potential

     negative rho (up, down):  1.004E-04 1.004E-04
     Generating pointlists ...

     total cpu time spent up to now is       14.3 secs

     Self-consistent Calculation

     iteration #  1     ecut=   100.00 Ry     beta= 0.50
     Davidson diagonalization with overlap

---- Real-time Memory Report at c_bands before calling an iterative solver
           320 MiB given to the printing process from OS
             0 MiB allocation reported by mallinfo(arena+hblkhd)
        179068 MiB available memory on the node where the printing process lives
------------------
     ethr =  1.00E-06,  avg # of iterations =  5.0

     negative rho (up, down):  4.002E-05 4.919E-05

     total cpu time spent up to now is       14.9 secs

     total energy              =     -11.25259934 Ry
     estimated scf accuracy    <       0.00012525 Ry

     total magnetization       =     1.00 Bohr mag/cell
     absolute magnetization    =     1.09 Bohr mag/cell

     iteration #  2     ecut=   100.00 Ry     beta= 0.50
     Davidson diagonalization with overlap

---- Real-time Memory Report at c_bands before calling an iterative solver
           320 MiB given to the printing process from OS
             0 MiB allocation reported by mallinfo(arena+hblkhd)
        179060 MiB available memory on the node where the printing process lives
------------------
     ethr =  1.79E-06,  avg # of iterations =  1.5

     negative rho (up, down):  9.104E-06 1.439E-05

     total cpu time spent up to now is       15.3 secs

     total energy              =     -11.25261223 Ry
     estimated scf accuracy    <       0.00001284 Ry

     total magnetization       =     1.00 Bohr mag/cell
     absolute magnetization    =     1.09 Bohr mag/cell

     iteration #  3     ecut=   100.00 Ry     beta= 0.50
     Davidson diagonalization with overlap

---- Real-time Memory Report at c_bands before calling an iterative solver
           320 MiB given to the printing process from OS
             0 MiB allocation reported by mallinfo(arena+hblkhd)
        179060 MiB available memory on the node where the printing process lives
------------------
     ethr =  1.83E-07,  avg # of iterations =  2.0

     negative rho (up, down):  7.756E-07 1.087E-06

     total cpu time spent up to now is       15.7 secs

     total energy              =     -11.25261494 Ry
     estimated scf accuracy    <       0.00000149 Ry

     total magnetization       =     1.00 Bohr mag/cell
     absolute magnetization    =     1.09 Bohr mag/cell

     iteration #  4     ecut=   100.00 Ry     beta= 0.50
     Davidson diagonalization with overlap

---- Real-time Memory Report at c_bands before calling an iterative solver
           320 MiB given to the printing process from OS
             0 MiB allocation reported by mallinfo(arena+hblkhd)
        179058 MiB available memory on the node where the printing process lives
------------------
     ethr =  2.13E-08,  avg # of iterations =  3.0

     negative rho (up, down):  2.526E-08 3.527E-08

     total cpu time spent up to now is       16.1 secs

     total energy              =     -11.25261534 Ry
     estimated scf accuracy    <       0.00000009 Ry

     total magnetization       =     1.00 Bohr mag/cell
     absolute magnetization    =     1.09 Bohr mag/cell

     iteration #  5     ecut=   100.00 Ry     beta= 0.50
     Davidson diagonalization with overlap

---- Real-time Memory Report at c_bands before calling an iterative solver
           320 MiB given to the printing process from OS
             0 MiB allocation reported by mallinfo(arena+hblkhd)
        179056 MiB available memory on the node where the printing process lives
------------------
     ethr =  1.32E-09,  avg # of iterations =  2.0

     total cpu time spent up to now is       16.5 secs

     total energy              =     -11.25261539 Ry
     estimated scf accuracy    <       0.00000002 Ry

     total magnetization       =     1.00 Bohr mag/cell
     absolute magnetization    =     1.09 Bohr mag/cell

     iteration #  6     ecut=   100.00 Ry     beta= 0.50
     Davidson diagonalization with overlap

---- Real-time Memory Report at c_bands before calling an iterative solver
           320 MiB given to the printing process from OS
             0 MiB allocation reported by mallinfo(arena+hblkhd)
        179056 MiB available memory on the node where the printing process lives
------------------
     ethr =  2.82E-10,  avg # of iterations =  2.5
 
     Magnetic moment per site  (integrated on atomic sphere of radius R)
     atom   1 (R=0.031)  charge=  0.3542  magn=  0.0646
     atom   2 (R=0.031)  charge=  0.7158  magn= -0.0054
     atom   3 (R=0.031)  charge=  0.7160  magn= -0.0052
     atom   4 (R=0.031)  charge=  0.7168  magn= -0.0054

     total cpu time spent up to now is       16.9 secs

     End of self-consistent calculation

 ------ SPIN UP ------------


          k = 0.0000 0.0000 0.0000 (855385 PWs)   bands (ev):

   -13.3253  -8.8918  -8.8469  -4.8531

     occupation numbers 
     1.0000   1.0000   1.0000   1.0000

 ------ SPIN DOWN ----------


          k = 0.0000 0.0000 0.0000 (855385 PWs)   bands (ev):

   -12.7661  -8.7800  -8.7352  -2.8725

     occupation numbers 
     1.0000   1.0000   1.0000   0.0000

     highest occupied, lowest unoccupied level (ev):    -4.8531   -2.8725

!    total energy              =     -11.25261540 Ry
     estimated scf accuracy    <          6.5E-09 Ry

     The total energy is the sum of the following terms:
     one-electron contribution =     -26.56902660 Ry
     hartree contribution      =      13.65962177 Ry
     xc contribution           =      -4.35126901 Ry
     ewald contribution        =       6.00805843 Ry

     total magnetization       =     1.00 Bohr mag/cell
     absolute magnetization    =     1.09 Bohr mag/cell

     convergence has been achieved in   6 iterations

     Forces acting on atoms (cartesian axes, Ry/au):

     atom    1 type  1   force =     0.00311354    0.00356382    0.02168154
     atom    2 type  2   force =    -0.00925117   -0.00250237   -0.00642718
     atom    3 type  2   force =     0.00311565    0.00648239   -0.00835048
     atom    4 type  2   force =     0.00302198   -0.00754384   -0.00690389
     The non-local contrib.  to forces
     atom    1 type  1   force =     0.00080810   -0.00405695   -0.00169920
     atom    2 type  2   force =     0.00000000    0.00000000    0.00000000
     atom    3 type  2   force =     0.00000000    0.00000000    0.00000000
     atom    4 type  2   force =     0.00000000    0.00000000    0.00000000
     The ionic contribution  to forces
     atom    1 type  1   force =     0.02408304    0.02074735    0.47131277
     atom    2 type  2   force =     1.12229328    0.08186536   -0.22517543
     atom    3 type  2   force =    -0.49892566   -1.03466043   -0.05808013
     atom    4 type  2   force =    -0.64745066    0.93204772   -0.18805721
     The local contribution  to forces
     atom    1 type  1   force =    -0.02179155   -0.01313674   -0.44789318
     atom    2 type  2   force =    -1.13153866   -0.08437086    0.21874901
     atom    3 type  2   force =     0.50203472    1.04113375    0.04973271
     atom    4 type  2   force =     0.65046398   -0.93958881    0.18115488
     The core correction contribution to forces
     atom    1 type  1   force =     0.00000000    0.00000000    0.00000000
     atom    2 type  2   force =     0.00000000    0.00000000    0.00000000
     atom    3 type  2   force =     0.00000000    0.00000000    0.00000000
     atom    4 type  2   force =     0.00000000    0.00000000    0.00000000
     The Hubbard contrib.    to forces
     atom    1 type  1   force =     0.00000000    0.00000000    0.00000000
     atom    2 type  2   force =     0.00000000    0.00000000    0.00000000
     atom    3 type  2   force =     0.00000000    0.00000000    0.00000000
     atom    4 type  2   force =     0.00000000    0.00000000    0.00000000
     The SCF correction term to forces
     atom    1 type  1   force =     0.00001139    0.00000735   -0.00003949
     atom    2 type  2   force =    -0.00000836    0.00000032   -0.00000140
     atom    3 type  2   force =     0.00000403    0.00000627   -0.00000371
     atom    4 type  2   force =     0.00000610   -0.00000556   -0.00000219

     Total force =     0.029339     Total SCF correction =     0.000044
     Energy error            =      1.2E-03 Ry
     Gradient error          =      2.2E-02 Ry/Bohr

     number of scf cycles    =   2
     number of bfgs steps    =   1

     energy             old  =     -11.2513819146 Ry
     energy             new  =     -11.2526154050 Ry

     CASE: energy            _new < energy            _old

     new trust radius        =       0.0320377242 bohr
     new conv_thr            =       0.0000000012 Ry


ATOMIC_POSITIONS (angstrom)
Si            5.0122272353        4.8729580264        5.2356378251
H             6.4535072786        4.9714061963        4.8935134609
H             4.3617538216        3.5304751218        5.1088653750
H             4.1725116645        6.0651606555        4.9419833391



     Writing config-only to output data dir ./scratch/sih3.save/
     NEW-OLD atomic charge density approx. for the potential

     negative rho (up, down):  1.074E-04 1.074E-04
     Generating pointlists ...

     total cpu time spent up to now is       18.7 secs

     Self-consistent Calculation

     iteration #  1     ecut=   100.00 Ry     beta= 0.50
     Davidson diagonalization with overlap

---- Real-time Memory Report at c_bands before calling an iterative solver
           321 MiB given to the printing process from OS
             0 MiB allocation reported by mallinfo(arena+hblkhd)
        179045 MiB available memory on the node where the printing process lives
------------------
     ethr =  1.00E-06,  avg # of iterations =  5.0

     negative rho (up, down):  4.275E-05 5.268E-05

     total cpu time spent up to now is       19.2 secs

     total energy              =     -11.25371289 Ry
     estimated scf accuracy    <       0.00012108 Ry

     total magnetization       =     1.00 Bohr mag/cell
     absolute magnetization    =     1.09 Bohr mag/cell

     iteration #  2     ecut=   100.00 Ry     beta= 0.50
     Davidson diagonalization with overlap

---- Real-time Memory Report at c_bands before calling an iterative solver
           321 MiB given to the printing process from OS
             0 MiB allocation reported by mallinfo(arena+hblkhd)
        179043 MiB available memory on the node where the printing process lives
------------------
     ethr =  1.73E-06,  avg # of iterations =  1.5

     negative rho (up, down):  1.044E-05 1.746E-05

     total cpu time spent up to now is       19.6 secs

     total energy              =     -11.25372933 Ry
     estimated scf accuracy    <       0.00000994 Ry

     total magnetization       =     1.00 Bohr mag/cell
     absolute magnetization    =     1.08 Bohr mag/cell

     iteration #  3     ecut=   100.00 Ry     beta= 0.50
     Davidson diagonalization with overlap

---- Real-time Memory Report at c_bands before calling an iterative solver
           321 MiB given to the printing process from OS
             0 MiB allocation reported by mallinfo(arena+hblkhd)
        179043 MiB available memory on the node where the printing process lives
------------------
     ethr =  1.42E-07,  avg # of iterations =  2.5

     negative rho (up, down):  5.009E-07 6.931E-07

     total cpu time spent up to now is       20.0 secs

     total energy              =     -11.25373291 Ry
     estimated scf accuracy    <       0.00000185 Ry

     total magnetization       =     1.00 Bohr mag/cell
     absolute magnetization    =     1.08 Bohr mag/cell

     iteration #  4     ecut=   100.00 Ry     beta= 0.50
     Davidson diagonalization with overlap

---- Real-time Memory Report at c_bands before calling an iterative solver
           321 MiB given to the printing process from OS
             0 MiB allocation reported by mallinfo(arena+hblkhd)
        179038 MiB available memory on the node where the printing process lives
------------------
     ethr =  2.65E-08,  avg # of iterations =  2.0

     negative rho (up, down):  9.326E-08 2.210E-08

     total cpu time spent up to now is       20.4 secs

     total energy              =     -11.25373340 Ry
     estimated scf accuracy    <       0.00000013 Ry

     total magnetization       =     1.00 Bohr mag/cell
     absolute magnetization    =     1.08 Bohr mag/cell

     iteration #  5     ecut=   100.00 Ry     beta= 0.50
     Davidson diagonalization with overlap

---- Real-time Memory Report at c_bands before calling an iterative solver
           321 MiB given to the printing process from OS
             0 MiB allocation reported by mallinfo(arena+hblkhd)
        179038 MiB available memory on the node where the printing process lives
------------------
     ethr =  1.85E-09,  avg # of iterations =  3.5

     negative rho (up, down):  3.230E-07 6.994E-08

     total cpu time spent up to now is       20.9 secs

     total energy              =     -11.25373352 Ry
     estimated scf accuracy    <       0.00000002 Ry

     total magnetization       =     1.00 Bohr mag/cell
     absolute magnetization    =     1.08 Bohr mag/cell

     iteration #  6     ecut=   100.00 Ry     beta= 0.50
     Davidson diagonalization with overlap

---- Real-time Memory Report at c_bands before calling an iterative solver
           321 MiB given to the printing process from OS
             0 MiB allocation reported by mallinfo(arena+hblkhd)
        179036 MiB available memory on the node where the printing process lives
------------------
     ethr =  3.46E-10,  avg # of iterations =  2.0

     negative rho (up, down):  4.555E-08 1.143E-08

     total cpu time spent up to now is       21.3 secs

     total energy              =     -11.25373354 Ry
     estimated scf accuracy    <          3.2E-09 Ry

     total magnetization       =     1.00 Bohr mag/cell
     absolute magnetization    =     1.08 Bohr mag/cell

     iteration #  7     ecut=   100.00 Ry     beta= 0.50
     Davidson diagonalization with overlap

---- Real-time Memory Report at c_bands before calling an iterative solver
           321 MiB given to the printing process from OS
             0 MiB allocation reported by mallinfo(arena+hblkhd)
        179036 MiB available memory on the node where the printing process lives
------------------
     ethr =  4.56E-11,  avg # of iterations =  3.5
 
     Magnetic moment per site  (integrated on atomic sphere of radius R)
     atom   1 (R=0.031)  charge=  0.3549  magn=  0.0645
     atom   2 (R=0.031)  charge=  0.7222  magn= -0.0039
     atom   3 (R=0.031)  charge=  0.7141  magn= -0.0040
     atom   4 (R=0.031)  charge=  0.7204  magn= -0.0040

     total cpu time spent up to now is       21.7 secs

     End of self-consistent calculation

 ------ SPIN UP ------------


          k = 0.0000 0.0000 0.0000 (855385 PWs)   bands (ev):

   -13.3329  -8.8719  -8.8554  -4.8889

     occupation numbers 
     1.0000   1.0000   1.0000   1.0000

 ------ SPIN DOWN ----------


          k = 0.0000 0.0000 0.0000 (855385 PWs)   bands (ev):

   -12.7781  -8.7556  -8.7395  -2.8974

     occupation numbers 
     1.0000   1.0000   1.0000   0.0000

     highest occupied, lowest unoccupied level (ev):    -4.8889   -2.8974

!    total energy              =     -11.25373354 Ry
     estimated scf accuracy    <          5.6E-10 Ry

     The total energy is the sum of the following terms:
     one-electron contribution =     -26.61016043 Ry
     hartree contribution      =      13.68300202 Ry
     xc contribution           =      -4.35689020 Ry
     ewald contribution        =       6.03031506 Ry

     total magnetization       =     1.00 Bohr mag/cell
     absolute magnetization    =     1.08 Bohr mag/cell

     convergence has been achieved in   7 iterations

     Forces acting on atoms (cartesian axes, Ry/au):

     atom    1 type  1   force =    -0.00322018   -0.00300943    0.02303751
     atom    2 type  2   force =    -0.00284731   -0.00156408   -0.00786667
     atom    3 type  2   force =     0.00447814    0.00897110   -0.00771390
     atom    4 type  2   force =     0.00158935   -0.00439759   -0.00745694
     The non-local contrib.  to forces
     atom    1 type  1   force =    -0.00828942   -0.01277643    0.00720080
     atom    2 type  2   force =     0.00000000    0.00000000    0.00000000
     atom    3 type  2   force =     0.00000000    0.00000000    0.00000000
     atom    4 type  2   force =     0.00000000    0.00000000    0.00000000
     The ionic contribution  to forces
     atom    1 type  1   force =     0.01899596    0.01728184    0.51780220
     atom    2 type  2   force =     1.13314331    0.07807103   -0.24269723
     atom    3 type  2   force =    -0.49714621   -1.02786050   -0.07164980
     atom    4 type  2   force =    -0.65499306    0.93250763   -0.20345517
     The local contribution  to forces
     atom    1 type  1   force =    -0.01393087   -0.00751638   -0.50195880
     atom    2 type  2   force =    -1.13599065   -0.07963670    0.23483021
     atom    3 type  2   force =     0.50162156    1.03682868    0.06393598
     atom    4 type  2   force =     0.65657907   -0.93690536    0.19599814
     The core correction contribution to forces
     atom    1 type  1   force =     0.00000000    0.00000000    0.00000000
     atom    2 type  2   force =     0.00000000    0.00000000    0.00000000
     atom    3 type  2   force =     0.00000000    0.00000000    0.00000000
     atom    4 type  2   force =     0.00000000    0.00000000    0.00000000
     The Hubbard contrib.    to forces
     atom    1 type  1   force =     0.00000000    0.00000000    0.00000000
     atom    2 type  2   force =     0.00000000    0.00000000    0.00000000
     atom    3 type  2   force =     0.00000000    0.00000000    0.00000000
     atom    4 type  2   force =     0.00000000    0.00000000    0.00000000
     The SCF correction term to forces
     atom    1 type  1   force =     0.00000260    0.00000035   -0.00000738
     atom    2 type  2   force =    -0.00000153    0.00000042   -0.00000035
     atom    3 type  2   force =     0.00000124    0.00000174   -0.00000076
     atom    4 type  2   force =     0.00000180   -0.00000104   -0.00000060

     Total force =     0.029327     Total SCF correction =     0.000009
     Energy error            =      1.1E-03 Ry
     Gradient error          =      2.3E-02 Ry/Bohr

     number of scf cycles    =   3
     number of bfgs steps    =   2

     energy             old  =     -11.2526154050 Ry
     energy             new  =     -11.2537335435 Ry

     CASE: energy            _new < energy            _old

     new trust radius        =       0.0480565863 bohr
     new conv_thr            =       0.0000000011 Ry


ATOMIC_POSITIONS (angstrom)
Si            5.0168788803        4.8787540797        5.2599580999
H             6.4428060240        4.9684876397        4.8863332260
H             4.3644641429        3.5361708973        5.0994558199
H             4.1758509528        6.0565873832        4.9342528542



     Writing config-only to output data dir ./scratch/sih3.save/
     NEW-OLD atomic charge density approx. for the potential

     negative rho (up, down):  1.780E-04 1.780E-04
     Generating pointlists ...

     total cpu time spent up to now is       23.5 secs

     Self-consistent Calculation

     iteration #  1     ecut=   100.00 Ry     beta= 0.50
     Davidson diagonalization with overlap

---- Real-time Memory Report at c_bands before calling an iterative solver
           321 MiB given to the printing process from OS
             0 MiB allocation reported by mallinfo(arena+hblkhd)
        179173 MiB available memory on the node where the printing process lives
------------------
     ethr =  1.00E-06,  avg # of iterations =  6.0

     negative rho (up, down):  7.282E-05 8.783E-05

     total cpu time spent up to now is       24.1 secs

     total energy              =     -11.25517992 Ry
     estimated scf accuracy    <       0.00022395 Ry

     total magnetization       =     1.00 Bohr mag/cell
     absolute magnetization    =     1.08 Bohr mag/cell

     iteration #  2     ecut=   100.00 Ry     beta= 0.50
     Davidson diagonalization with overlap

---- Real-time Memory Report at c_bands before calling an iterative solver
           321 MiB given to the printing process from OS
             0 MiB allocation reported by mallinfo(arena+hblkhd)
        179174 MiB available memory on the node where the printing process lives
------------------
     ethr =  3.20E-06,  avg # of iterations =  1.5

     negative rho (up, down):  1.945E-05 3.240E-05

     total cpu time spent up to now is       24.5 secs

     total energy              =     -11.25521825 Ry
     estimated scf accuracy    <       0.00001498 Ry

     total magnetization       =     1.00 Bohr mag/cell
     absolute magnetization    =     1.08 Bohr mag/cell

     iteration #  3     ecut=   100.00 Ry     beta= 0.50
     Davidson diagonalization with overlap

---- Real-time Memory Report at c_bands before calling an iterative solver
           321 MiB given to the printing process from OS
             0 MiB allocation reported by mallinfo(arena+hblkhd)
        179174 MiB available memory on the node where the printing process lives
------------------
     ethr =  2.14E-07,  avg # of iterations =  2.5

     negative rho (up, down):  3.166E-07 4.359E-07

     total cpu time spent up to now is       24.9 secs

     total energy              =     -11.25522578 Ry
     estimated scf accuracy    <       0.00000357 Ry

     total magnetization       =     1.00 Bohr mag/cell
     absolute magnetization    =     1.08 Bohr mag/cell

     iteration #  4     ecut=   100.00 Ry     beta= 0.50
     Davidson diagonalization with overlap

---- Real-time Memory Report at c_bands before calling an iterative solver
           321 MiB given to the printing process from OS
             0 MiB allocation reported by mallinfo(arena+hblkhd)
        179171 MiB available memory on the node where the printing process lives
------------------
     ethr =  5.10E-08,  avg # of iterations =  2.0

     negative rho (up, down):  4.770E-07 9.465E-08

     total cpu time spent up to now is       25.3 secs

     total energy              =     -11.25522684 Ry
     estimated scf accuracy    <       0.00000025 Ry

     total magnetization       =     1.00 Bohr mag/cell
     absolute magnetization    =     1.08 Bohr mag/cell

     iteration #  5     ecut=   100.00 Ry     beta= 0.50
     Davidson diagonalization with overlap

---- Real-time Memory Report at c_bands before calling an iterative solver
           321 MiB given to the printing process from OS
             0 MiB allocation reported by mallinfo(arena+hblkhd)
        179171 MiB available memory on the node where the printing process lives
------------------
     ethr =  3.64E-09,  avg # of iterations =  3.5

     negative rho (up, down):  6.911E-07 1.340E-07

     total cpu time spent up to now is       25.8 secs

     total energy              =     -11.25522706 Ry
     estimated scf accuracy    <       0.00000004 Ry

     total magnetization       =     1.00 Bohr mag/cell
     absolute magnetization    =     1.07 Bohr mag/cell

     iteration #  6     ecut=   100.00 Ry     beta= 0.50
     Davidson diagonalization with overlap

---- Real-time Memory Report at c_bands before calling an iterative solver
           321 MiB given to the printing process from OS
             0 MiB allocation reported by mallinfo(arena+hblkhd)
        179171 MiB available memory on the node where the printing process lives
------------------
     ethr =  5.61E-10,  avg # of iterations =  2.0

     negative rho (up, down):  6.016E-08 1.392E-08

     total cpu time spent up to now is       26.2 secs

     total energy              =     -11.25522711 Ry
     estimated scf accuracy    <          5.4E-09 Ry

     total magnetization       =     1.00 Bohr mag/cell
     absolute magnetization    =     1.07 Bohr mag/cell

     iteration #  7     ecut=   100.00 Ry     beta= 0.50
     Davidson diagonalization with overlap

---- Real-time Memory Report at c_bands before calling an iterative solver
           321 MiB given to the printing process from OS
             0 MiB allocation reported by mallinfo(arena+hblkhd)
        179171 MiB available memory on the node where the printing process lives
------------------
     ethr =  7.71E-11,  avg # of iterations =  3.5
 
     Magnetic moment per site  (integrated on atomic sphere of radius R)
     atom   1 (R=0.031)  charge=  0.3558  magn=  0.0647
     atom   2 (R=0.031)  charge=  0.7279  magn= -0.0016
     atom   3 (R=0.031)  charge=  0.7135  magn= -0.0020
     atom   4 (R=0.031)  charge=  0.7241  magn= -0.0018

     total cpu time spent up to now is       26.6 secs

     End of self-consistent calculation

 ------ SPIN UP ------------


          k = 0.0000 0.0000 0.0000 (855385 PWs)   bands (ev):

   -13.3376  -8.8757  -8.8177  -4.9516

     occupation numbers 
     1.0000   1.0000   1.0000   1.0000

 ------ SPIN DOWN ----------


          k = 0.0000 0.0000 0.0000 (855385 PWs)   bands (ev):

   -12.7891  -8.7525  -8.6956  -2.9420

     occupation numbers 
     1.0000   1.0000   1.0000   0.0000

     highest occupied, lowest unoccupied level (ev):    -4.9516   -2.9420

!    total energy              =     -11.25522712 Ry
     estimated scf accuracy    <          9.6E-10 Ry

     The total energy is the sum of the following terms:
     one-electron contribution =     -26.65356296 Ry
     hartree contribution      =      13.70887545 Ry
     xc contribution           =      -4.36323183 Ry
     ewald contribution        =       6.05269221 Ry

     total magnetization       =     1.00 Bohr mag/cell
     absolute magnetization    =     1.07 Bohr mag/cell

     convergence has been achieved in   7 iterations

     Forces acting on atoms (cartesian axes, Ry/au):

     atom    1 type  1   force =    -0.00844877   -0.00855391    0.02333990
     atom    2 type  2   force =     0.00302958   -0.00066527   -0.00899862
     atom    3 type  2   force =     0.00531079    0.01045493   -0.00661547
     atom    4 type  2   force =     0.00010840   -0.00123575   -0.00772581
     The non-local contrib.  to forces
     atom    1 type  1   force =    -0.01513510   -0.01895946    0.02088998
     atom    2 type  2   force =     0.00000000    0.00000000    0.00000000
     atom    3 type  2   force =     0.00000000    0.00000000    0.00000000
     atom    4 type  2   force =     0.00000000    0.00000000    0.00000000
     The ionic contribution  to forces
     atom    1 type  1   force =     0.01718450    0.01808284    0.58858489
     atom    2 type  2   force =     1.14005014    0.07324441   -0.26837671
     atom    3 type  2   force =    -0.49563320   -1.02210925   -0.09313417
     atom    4 type  2   force =    -0.66160144    0.93078200   -0.22707402
     The local contribution  to forces
     atom    1 type  1   force =    -0.01050242   -0.00767751   -0.58612380
     atom    2 type  2   force =    -1.13702033   -0.07391108    0.25937938
     atom    3 type  2   force =     0.50094093    1.03256118    0.08652038
     atom    4 type  2   force =     0.66170611   -0.93201738    0.21934981
     The core correction contribution to forces
     atom    1 type  1   force =     0.00000000    0.00000000    0.00000000
     atom    2 type  2   force =     0.00000000    0.00000000    0.00000000
     atom    3 type  2   force =     0.00000000    0.00000000    0.00000000
     atom    4 type  2   force =     0.00000000    0.00000000    0.00000000
     The Hubbard contrib.    to forces
     atom    1 type  1   force =     0.00000000    0.00000000    0.00000000
     atom    2 type  2   force =     0.00000000    0.00000000    0.00000000
     atom    3 type  2   force =     0.00000000    0.00000000    0.00000000
     atom    4 type  2   force =     0.00000000    0.00000000    0.00000000
     The SCF correction term to forces
     atom    1 type  1   force =     0.00000253   -0.00000081   -0.00001059
     atom    2 type  2   force =    -0.00000194    0.00000036   -0.00000071
     atom    3 type  2   force =     0.00000134    0.00000195   -0.00000109
     atom    4 type  2   force =     0.00000201   -0.00000141   -0.00000101

     Total force =     0.031975     Total SCF correction =     0.000012
     Energy error            =      1.5E-03 Ry
     Gradient error          =      2.3E-02 Ry/Bohr

     number of scf cycles    =   4
     number of bfgs steps    =   3

     energy             old  =     -11.2537335435 Ry
     energy             new  =     -11.2552271186 Ry

     CASE: energy            _new < energy            _old

     new trust radius        =       0.0720848795 bohr
     new conv_thr            =       0.0000000015 Ry


ATOMIC_POSITIONS (angstrom)
Si            5.0217956803        4.8853431636        5.2972072826
H             6.4291846027        4.9644367089        4.8748110688
H             4.3688106866        3.5452061776        5.0856661488
H             4.1802090304        6.0450139499        4.9223154998



     Writing config-only to output data dir ./scratch/sih3.save/
     NEW-OLD atomic charge density approx. for the potential

     negative rho (up, down):  2.885E-04 2.885E-04
     Generating pointlists ...

     total cpu time spent up to now is       28.4 secs

     Self-consistent Calculation

     iteration #  1     ecut=   100.00 Ry     beta= 0.50
     Davidson diagonalization with overlap

---- Real-time Memory Report at c_bands before calling an iterative solver
           321 MiB given to the printing process from OS
             0 MiB allocation reported by mallinfo(arena+hblkhd)
        179166 MiB available memory on the node where the printing process lives
------------------
     ethr =  1.00E-06,  avg # of iterations =  6.5

     negative rho (up, down):  1.233E-04 1.432E-04

     total cpu time spent up to now is       28.9 secs

     total energy              =     -11.25705177 Ry
     estimated scf accuracy    <       0.00044927 Ry

     total magnetization       =     1.00 Bohr mag/cell
     absolute magnetization    =     1.07 Bohr mag/cell

     iteration #  2     ecut=   100.00 Ry     beta= 0.50
     Davidson diagonalization with overlap

---- Real-time Memory Report at c_bands before calling an iterative solver
           321 MiB given to the printing process from OS
             0 MiB allocation reported by mallinfo(arena+hblkhd)
        179160 MiB available memory on the node where the printing process lives
------------------
     ethr =  6.42E-06,  avg # of iterations =  2.0

     negative rho (up, down):  3.654E-05 5.542E-05

     total cpu time spent up to now is       29.3 secs

     total energy              =     -11.25713534 Ry
     estimated scf accuracy    <       0.00002531 Ry

     total magnetization       =     1.00 Bohr mag/cell
     absolute magnetization    =     1.07 Bohr mag/cell

     iteration #  3     ecut=   100.00 Ry     beta= 0.50
     Davidson diagonalization with overlap

---- Real-time Memory Report at c_bands before calling an iterative solver
           321 MiB given to the printing process from OS
             0 MiB allocation reported by mallinfo(arena+hblkhd)
        179160 MiB available memory on the node where the printing process lives
------------------
     ethr =  3.62E-07,  avg # of iterations =  3.0

     negative rho (up, down):  1.520E-07 2.025E-07

     total cpu time spent up to now is       29.7 secs

     total energy              =     -11.25715036 Ry
     estimated scf accuracy    <       0.00000700 Ry

     total magnetization       =     1.00 Bohr mag/cell
     absolute magnetization    =     1.07 Bohr mag/cell

     iteration #  4     ecut=   100.00 Ry     beta= 0.50
     Davidson diagonalization with overlap

---- Real-time Memory Report at c_bands before calling an iterative solver
           321 MiB given to the printing process from OS
             0 MiB allocation reported by mallinfo(arena+hblkhd)
        179157 MiB available memory on the node where the printing process lives
------------------
     ethr =  1.00E-07,  avg # of iterations =  2.0

     negative rho (up, down):  4.269E-07 8.611E-08

     total cpu time spent up to now is       30.2 secs

     total energy              =     -11.25715238 Ry
     estimated scf accuracy    <       0.00000090 Ry

     total magnetization       =     1.00 Bohr mag/cell
     absolute magnetization    =     1.07 Bohr mag/cell

     iteration #  5     ecut=   100.00 Ry     beta= 0.50
     Davidson diagonalization with overlap

---- Real-time Memory Report at c_bands before calling an iterative solver
           321 MiB given to the printing process from OS
             0 MiB allocation reported by mallinfo(arena+hblkhd)
        179156 MiB available memory on the node where the printing process lives
------------------
     ethr =  1.29E-08,  avg # of iterations =  2.0

     negative rho (up, down):  5.769E-07 1.140E-07

     total cpu time spent up to now is       30.6 secs

     total energy              =     -11.25715275 Ry
     estimated scf accuracy    <       0.00000003 Ry

     total magnetization       =     1.00 Bohr mag/cell
     absolute magnetization    =     1.06 Bohr mag/cell

     iteration #  6     ecut=   100.00 Ry     beta= 0.50
     Davidson diagonalization with overlap

---- Real-time Memory Report at c_bands before calling an iterative solver
           321 MiB given to the printing process from OS
             0 MiB allocation reported by mallinfo(arena+hblkhd)
        179156 MiB available memory on the node where the printing process lives
------------------
     ethr =  4.86E-10,  avg # of iterations =  4.0

     negative rho (up, down):  1.529E-07 3.314E-08

     total cpu time spent up to now is       31.1 secs

     total energy              =     -11.25715284 Ry
     estimated scf accuracy    <       0.00000001 Ry

     total magnetization       =     1.00 Bohr mag/cell
     absolute magnetization    =     1.06 Bohr mag/cell

     iteration #  7     ecut=   100.00 Ry     beta= 0.50
     Davidson diagonalization with overlap

---- Real-time Memory Report at c_bands before calling an iterative solver
           321 MiB given to the printing process from OS
             0 MiB allocation reported by mallinfo(arena+hblkhd)
        179149 MiB available memory on the node where the printing process lives
------------------
     ethr =  1.75E-10,  avg # of iterations =  3.0

     negative rho (up, down):  1.055E-08 1.359E-08

     total cpu time spent up to now is       31.5 secs

     total energy              =     -11.25715285 Ry
     estimated scf accuracy    <          4.1E-09 Ry

     total magnetization       =     1.00 Bohr mag/cell
     absolute magnetization    =     1.06 Bohr mag/cell

     iteration #  8     ecut=   100.00 Ry     beta= 0.50
     Davidson diagonalization with overlap

---- Real-time Memory Report at c_bands before calling an iterative solver
           321 MiB given to the printing process from OS
             0 MiB allocation reported by mallinfo(arena+hblkhd)
        179063 MiB available memory on the node where the printing process lives
------------------
     ethr =  5.84E-11,  avg # of iterations =  2.5
 
     Magnetic moment per site  (integrated on atomic sphere of radius R)
     atom   1 (R=0.031)  charge=  0.3564  magn=  0.0649
     atom   2 (R=0.031)  charge=  0.7328  magn=  0.0017
     atom   3 (R=0.031)  charge=  0.7133  magn=  0.0011
     atom   4 (R=0.031)  charge=  0.7274  magn=  0.0015

     total cpu time spent up to now is       31.9 secs

     End of self-consistent calculation

 ------ SPIN UP ------------


          k = 0.0000 0.0000 0.0000 (855385 PWs)   bands (ev):

   -13.3343  -8.8578  -8.7585  -5.0609

     occupation numbers 
     1.0000   1.0000   1.0000   1.0000

 ------ SPIN DOWN ----------


          k = 0.0000 0.0000 0.0000 (855385 PWs)   bands (ev):

   -12.7944  -8.7249  -8.6270  -3.0236

     occupation numbers 
     1.0000   1.0000   1.0000   0.0000

     highest occupied, lowest unoccupied level (ev):    -5.0609   -3.0236

!    total energy              =     -11.25715286 Ry
     estimated scf accuracy    <          1.7E-10 Ry

     The total energy is the sum of the following terms:
     one-electron contribution =     -26.69152506 Ry
     hartree contribution      =      13.73403224 Ry
     xc contribution           =      -4.36929606 Ry
     ewald contribution        =       6.06963602 Ry

     total magnetization       =     1.00 Bohr mag/cell
     absolute magnetization    =     1.06 Bohr mag/cell

     convergence has been achieved in   8 iterations

     Forces acting on atoms (cartesian axes, Ry/au):

     atom    1 type  1   force =    -0.01272280   -0.01329202    0.02066191
     atom    2 type  2   force =     0.00793653    0.00023010   -0.00922828
     atom    3 type  2   force =     0.00587559    0.01145061   -0.00434672
     atom    4 type  2   force =    -0.00108931    0.00161131   -0.00708691
     The non-local contrib.  to forces
     atom    1 type  1   force =    -0.01960489   -0.02239801    0.04292483
     atom    2 type  2   force =     0.00000000    0.00000000    0.00000000
     atom    3 type  2   force =     0.00000000    0.00000000    0.00000000
     atom    4 type  2   force =     0.00000000    0.00000000    0.00000000
     The ionic contribution  to forces
     atom    1 type  1   force =     0.01931193    0.02414034    0.69304983
     atom    2 type  2   force =     1.14024733    0.06668323   -0.30554270
     atom    3 type  2   force =    -0.49338552   -1.01507961   -0.12544823
     atom    4 type  2   force =    -0.66617373    0.92425604   -0.26205890
     The local contribution  to forces
     atom    1 type  1   force =    -0.01243087   -0.01503533   -0.71531019
     atom    2 type  2   force =    -1.13231134   -0.06645399    0.29631649
     atom    3 type  2   force =     0.49925955    1.02652882    0.12110352
     atom    4 type  2   force =     0.66508249   -0.92264472    0.25497411
     The core correction contribution to forces
     atom    1 type  1   force =     0.00000000    0.00000000    0.00000000
     atom    2 type  2   force =     0.00000000    0.00000000    0.00000000
     atom    3 type  2   force =     0.00000000    0.00000000    0.00000000
     atom    4 type  2   force =     0.00000000    0.00000000    0.00000000
     The Hubbard contrib.    to forces
     atom    1 type  1   force =     0.00000000    0.00000000    0.00000000
     atom    2 type  2   force =     0.00000000    0.00000000    0.00000000
     atom    3 type  2   force =     0.00000000    0.00000000    0.00000000
     atom    4 type  2   force =     0.00000000    0.00000000    0.00000000
     The SCF correction term to forces
     atom    1 type  1   force =    -0.00000014    0.00000042   -0.00000065
     atom    2 type  2   force =    -0.00000063    0.00000030   -0.00000016
     atom    3 type  2   force =     0.00000039    0.00000084   -0.00000010
     atom    4 type  2   force =     0.00000076   -0.00000056   -0.00000021

     Total force =     0.033944     Total SCF correction =     0.000002
     Energy error            =      1.9E-03 Ry
     Gradient error          =      2.1E-02 Ry/Bohr

     number of scf cycles    =   5
     number of bfgs steps    =   4

     energy             old  =     -11.2552271186 Ry
     energy             new  =     -11.2571528552 Ry

     CASE: energy            _new < energy            _old

     new trust radius        =       0.1081273192 bohr
     new conv_thr            =       0.0000000019 Ry


ATOMIC_POSITIONS (angstrom)
Si            5.0266741170        4.8925298838        5.3537626551
H             6.4110849455        4.9586749673        4.8564811154
H             4.3759962317        3.5600326046        5.0657525924
H             4.1862447059        6.0287625443        4.9040036371



     Writing config-only to output data dir ./scratch/sih3.save/
     NEW-OLD atomic charge density approx. for the potential

     negative rho (up, down):  4.492E-04 4.492E-04
     Generating pointlists ...

     total cpu time spent up to now is       33.6 secs

     Self-consistent Calculation

     iteration #  1     ecut=   100.00 Ry     beta= 0.50
     Davidson diagonalization with overlap

---- Real-time Memory Report at c_bands before calling an iterative solver
           321 MiB given to the printing process from OS
             0 MiB allocation reported by mallinfo(arena+hblkhd)
        179056 MiB available memory on the node where the printing process lives
------------------
     ethr =  1.00E-06,  avg # of iterations =  7.0

     negative rho (up, down):  2.010E-04 2.232E-04

     total cpu time spent up to now is       34.2 secs

     total energy              =     -11.25884740 Ry
     estimated scf accuracy    <       0.00104500 Ry

     total magnetization       =     1.00 Bohr mag/cell
     absolute magnetization    =     1.06 Bohr mag/cell

     iteration #  2     ecut=   100.00 Ry     beta= 0.50
     Davidson diagonalization with overlap

---- Real-time Memory Report at c_bands before calling an iterative solver
           321 MiB given to the printing process from OS
             0 MiB allocation reported by mallinfo(arena+hblkhd)
        179054 MiB available memory on the node where the printing process lives
------------------
     ethr =  1.49E-05,  avg # of iterations =  2.0

     negative rho (up, down):  6.482E-05 8.887E-05

     total cpu time spent up to now is       34.6 secs

     total energy              =     -11.25904290 Ry
     estimated scf accuracy    <       0.00004761 Ry

     total magnetization       =     1.00 Bohr mag/cell
     absolute magnetization    =     1.06 Bohr mag/cell

     iteration #  3     ecut=   100.00 Ry     beta= 0.50
     Davidson diagonalization with overlap

---- Real-time Memory Report at c_bands before calling an iterative solver
           321 MiB given to the printing process from OS
             0 MiB allocation reported by mallinfo(arena+hblkhd)
        179054 MiB available memory on the node where the printing process lives
------------------
     ethr =  6.80E-07,  avg # of iterations =  2.5

     negative rho (up, down):  2.999E-06 5.632E-06

     total cpu time spent up to now is       35.0 secs

     total energy              =     -11.25907429 Ry
     estimated scf accuracy    <       0.00001061 Ry

     total magnetization       =     1.00 Bohr mag/cell
     absolute magnetization    =     1.06 Bohr mag/cell

     iteration #  4     ecut=   100.00 Ry     beta= 0.50
     Davidson diagonalization with overlap

---- Real-time Memory Report at c_bands before calling an iterative solver
           321 MiB given to the printing process from OS
             0 MiB allocation reported by mallinfo(arena+hblkhd)
        179049 MiB available memory on the node where the printing process lives
------------------
     ethr =  1.52E-07,  avg # of iterations =  2.0

     negative rho (up, down):  1.937E-06 3.755E-07

     total cpu time spent up to now is       35.5 secs

     total energy              =     -11.25907897 Ry
     estimated scf accuracy    <       0.00000055 Ry

     total magnetization       =     1.00 Bohr mag/cell
     absolute magnetization    =     1.05 Bohr mag/cell

     iteration #  5     ecut=   100.00 Ry     beta= 0.50
     Davidson diagonalization with overlap

---- Real-time Memory Report at c_bands before calling an iterative solver
           321 MiB given to the printing process from OS
             0 MiB allocation reported by mallinfo(arena+hblkhd)
        179049 MiB available memory on the node where the printing process lives
------------------
     ethr =  7.91E-09,  avg # of iterations =  3.5

     negative rho (up, down):  1.317E-06 2.597E-07

     total cpu time spent up to now is       35.9 secs

     total energy              =     -11.25907991 Ry
     estimated scf accuracy    <       0.00000010 Ry

     total magnetization       =     1.00 Bohr mag/cell
     absolute magnetization    =     1.05 Bohr mag/cell

     iteration #  6     ecut=   100.00 Ry     beta= 0.50
     Davidson diagonalization with overlap

---- Real-time Memory Report at c_bands before calling an iterative solver
           321 MiB given to the printing process from OS
             0 MiB allocation reported by mallinfo(arena+hblkhd)
        179043 MiB available memory on the node where the printing process lives
------------------
     ethr =  1.37E-09,  avg # of iterations =  3.0

     negative rho (up, down):  8.348E-08 1.048E-07

     total cpu time spent up to now is       36.4 secs

     total energy              =     -11.25908003 Ry
     estimated scf accuracy    <       0.00000001 Ry

     total magnetization       =     1.00 Bohr mag/cell
     absolute magnetization    =     1.05 Bohr mag/cell

     iteration #  7     ecut=   100.00 Ry     beta= 0.50
     Davidson diagonalization with overlap

---- Real-time Memory Report at c_bands before calling an iterative solver
           321 MiB given to the printing process from OS
             0 MiB allocation reported by mallinfo(arena+hblkhd)
        179043 MiB available memory on the node where the printing process lives
------------------
     ethr =  1.45E-10,  avg # of iterations =  3.5
 
     Magnetic moment per site  (integrated on atomic sphere of radius R)
     atom   1 (R=0.031)  charge=  0.3565  magn=  0.0654
     atom   2 (R=0.031)  charge=  0.7347  magn=  0.0065
     atom   3 (R=0.031)  charge=  0.7135  magn=  0.0057
     atom   4 (R=0.031)  charge=  0.7285  magn=  0.0062

     total cpu time spent up to now is       36.8 secs

     End of self-consistent calculation

 ------ SPIN UP ------------


          k = 0.0000 0.0000 0.0000 (855385 PWs)   bands (ev):

   -13.3138  -8.7897  -8.6638  -5.2528

     occupation numbers 
     1.0000   1.0000   1.0000   1.0000

 ------ SPIN DOWN ----------


          k = 0.0000 0.0000 0.0000 (855385 PWs)   bands (ev):

   -12.7838  -8.6435  -8.5190  -3.1768

     occupation numbers 
     1.0000   1.0000   1.0000   0.0000

     highest occupied, lowest unoccupied level (ev):    -5.2528   -3.1768

!    total energy              =     -11.25908006 Ry
     estimated scf accuracy    <          8.5E-10 Ry

     The total energy is the sum of the following terms:
     one-electron contribution =     -26.70776957 Ry
     hartree contribution      =      13.75115193 Ry
     xc contribution           =      -4.37239644 Ry
     ewald contribution        =       6.06993402 Ry

     total magnetization       =     1.00 Bohr mag/cell
     absolute magnetization    =     1.05 Bohr mag/cell

     convergence has been achieved in   7 iterations

     Forces acting on atoms (cartesian axes, Ry/au):

     atom    1 type  1   force =    -0.01466373   -0.01592589    0.01019596
     atom    2 type  2   force =     0.00999989    0.00108723   -0.00662454
     atom    3 type  2   force =     0.00596653    0.01157663    0.00034264
     atom    4 type  2   force =    -0.00130269    0.00326203   -0.00391406
     The non-local contrib.  to forces
     atom    1 type  1   force =    -0.01891363   -0.02012712    0.07820568
     atom    2 type  2   force =     0.00000000    0.00000000    0.00000000
     atom    3 type  2   force =     0.00000000    0.00000000    0.00000000
     atom    4 type  2   force =     0.00000000    0.00000000    0.00000000
     The ionic contribution  to forces
     atom    1 type  1   force =     0.02853646    0.03916013    0.84344236
     atom    2 type  2   force =     1.12592510    0.05788604   -0.35770667
     atom    3 type  2   force =    -0.48942540   -1.00506480   -0.17330678
     atom    4 type  2   force =    -0.66503616    0.90801864   -0.31242890
     The local contribution  to forces
     atom    1 type  1   force =    -0.02428643   -0.03495831   -0.91144128
     atom    2 type  2   force =    -1.11592426   -0.05679907    0.35108440
     atom    3 type  2   force =     0.49539096    1.01664038    0.17365188
     atom    4 type  2   force =     0.66373160   -0.90475509    0.30851749
     The core correction contribution to forces
     atom    1 type  1   force =     0.00000000    0.00000000    0.00000000
     atom    2 type  2   force =     0.00000000    0.00000000    0.00000000
     atom    3 type  2   force =     0.00000000    0.00000000    0.00000000
     atom    4 type  2   force =     0.00000000    0.00000000    0.00000000
     The Hubbard contrib.    to forces
     atom    1 type  1   force =     0.00000000    0.00000000    0.00000000
     atom    2 type  2   force =     0.00000000    0.00000000    0.00000000
     atom    3 type  2   force =     0.00000000    0.00000000    0.00000000
     atom    4 type  2   force =     0.00000000    0.00000000    0.00000000
     The SCF correction term to forces
     atom    1 type  1   force =    -0.00000068   -0.00000046   -0.00000947
     atom    2 type  2   force =    -0.00000150    0.00000038   -0.00000094
     atom    3 type  2   force =     0.00000041    0.00000117   -0.00000114
     atom    4 type  2   force =     0.00000131   -0.00000139   -0.00000132

     Total force =     0.030250     Total SCF correction =     0.000010
     Energy error            =      1.9E-03 Ry
     Gradient error          =      1.6E-02 Ry/Bohr

     number of scf cycles    =   6
     number of bfgs steps    =   5

     energy             old  =     -11.2571528552 Ry
     energy             new  =     -11.2590800553 Ry

     CASE: energy            _new < energy            _old

     new trust radius        =       0.0685436362 bohr
     new conv_thr            =       0.0000000016 Ry


ATOMIC_POSITIONS (angstrom)
Si            5.0261672809        4.8930096624        5.3900276705
H             6.4011571757        4.9552411043        4.8434789351
H             4.3824242600        3.5731213755        5.0545209443
H             4.1902512834        6.0186278578        4.8919724501



     Writing config-only to output data dir ./scratch/sih3.save/
     NEW-OLD atomic charge density approx. for the potential

     negative rho (up, down):  2.828E-04 2.828E-04
     Generating pointlists ...

     total cpu time spent up to now is       38.5 secs

     Self-consistent Calculation

     iteration #  1     ecut=   100.00 Ry     beta= 0.50
     Davidson diagonalization with overlap

---- Real-time Memory Report at c_bands before calling an iterative solver
           322 MiB given to the printing process from OS
             0 MiB allocation reported by mallinfo(arena+hblkhd)
        179033 MiB available memory on the node where the printing process lives
------------------
     ethr =  1.00E-06,  avg # of iterations =  6.0

     negative rho (up, down):  1.234E-04 1.378E-04

     total cpu time spent up to now is       39.1 secs

     total energy              =     -11.25951754 Ry
     estimated scf accuracy    <       0.00052319 Ry

     total magnetization       =     1.00 Bohr mag/cell
     absolute magnetization    =     1.05 Bohr mag/cell

     iteration #  2     ecut=   100.00 Ry     beta= 0.50
     Davidson diagonalization with overlap

---- Real-time Memory Report at c_bands before calling an iterative solver
           322 MiB given to the printing process from OS
             0 MiB allocation reported by mallinfo(arena+hblkhd)
        179031 MiB available memory on the node where the printing process lives
------------------
     ethr =  7.47E-06,  avg # of iterations =  2.0

     negative rho (up, down):  3.742E-05 5.280E-05

     total cpu time spent up to now is       39.5 secs

     total energy              =     -11.25960717 Ry
     estimated scf accuracy    <       0.00002493 Ry

     total magnetization       =     1.00 Bohr mag/cell
     absolute magnetization    =     1.05 Bohr mag/cell

     iteration #  3     ecut=   100.00 Ry     beta= 0.50
     Davidson diagonalization with overlap

---- Real-time Memory Report at c_bands before calling an iterative solver
           322 MiB given to the printing process from OS
             0 MiB allocation reported by mallinfo(arena+hblkhd)
        179031 MiB available memory on the node where the printing process lives
------------------
     ethr =  3.56E-07,  avg # of iterations =  2.5

     negative rho (up, down):  4.299E-06 7.676E-06

     total cpu time spent up to now is       39.9 secs

     total energy              =     -11.25962091 Ry
     estimated scf accuracy    <       0.00000433 Ry

     total magnetization       =     1.00 Bohr mag/cell
     absolute magnetization    =     1.05 Bohr mag/cell

     iteration #  4     ecut=   100.00 Ry     beta= 0.50
     Davidson diagonalization with overlap

---- Real-time Memory Report at c_bands before calling an iterative solver
           322 MiB given to the printing process from OS
             0 MiB allocation reported by mallinfo(arena+hblkhd)
        179022 MiB available memory on the node where the printing process lives
------------------
     ethr =  6.18E-08,  avg # of iterations =  2.0

     negative rho (up, down):  7.596E-07 1.594E-07

     total cpu time spent up to now is       40.4 secs

     total energy              =     -11.25962286 Ry
     estimated scf accuracy    <       0.00000028 Ry

     total magnetization       =     1.00 Bohr mag/cell
     absolute magnetization    =     1.05 Bohr mag/cell

     iteration #  5     ecut=   100.00 Ry     beta= 0.50
     Davidson diagonalization with overlap

---- Real-time Memory Report at c_bands before calling an iterative solver
           322 MiB given to the printing process from OS
             0 MiB allocation reported by mallinfo(arena+hblkhd)
        179022 MiB available memory on the node where the printing process lives
------------------
     ethr =  3.94E-09,  avg # of iterations =  3.0

     negative rho (up, down):  4.072E-07 8.863E-08

     total cpu time spent up to now is       40.8 secs

     total energy              =     -11.25962324 Ry
     estimated scf accuracy    <       0.00000003 Ry

     total magnetization       =     1.00 Bohr mag/cell
     absolute magnetization    =     1.05 Bohr mag/cell

     iteration #  6     ecut=   100.00 Ry     beta= 0.50
     Davidson diagonalization with overlap

---- Real-time Memory Report at c_bands before calling an iterative solver
           322 MiB given to the printing process from OS
             0 MiB allocation reported by mallinfo(arena+hblkhd)
        179019 MiB available memory on the node where the printing process lives
------------------
     ethr =  4.25E-10,  avg # of iterations =  3.0

     negative rho (up, down):  2.815E-08 7.428E-09

     total cpu time spent up to now is       41.3 secs

     total energy              =     -11.25962330 Ry
     estimated scf accuracy    <          2.7E-09 Ry

     total magnetization       =     1.00 Bohr mag/cell
     absolute magnetization    =     1.05 Bohr mag/cell

     iteration #  7     ecut=   100.00 Ry     beta= 0.50
     Davidson diagonalization with overlap

---- Real-time Memory Report at c_bands before calling an iterative solver
           322 MiB given to the printing process from OS
             0 MiB allocation reported by mallinfo(arena+hblkhd)
        179019 MiB available memory on the node where the printing process lives
------------------
     ethr =  3.79E-11,  avg # of iterations =  2.5
 
     Magnetic moment per site  (integrated on atomic sphere of radius R)
     atom   1 (R=0.031)  charge=  0.3560  magn=  0.0656
     atom   2 (R=0.031)  charge=  0.7311  magn=  0.0091
     atom   3 (R=0.031)  charge=  0.7172  magn=  0.0085
     atom   4 (R=0.031)  charge=  0.7270  magn=  0.0090

     total cpu time spent up to now is       41.7 secs

     End of self-consistent calculation

 ------ SPIN UP ------------


          k = 0.0000 0.0000 0.0000 (855385 PWs)   bands (ev):

   -13.2955  -8.7105  -8.6186  -5.3872

     occupation numbers 
     1.0000   1.0000   1.0000   1.0000

 ------ SPIN DOWN ----------


          k = 0.0000 0.0000 0.0000 (855385 PWs)   bands (ev):

   -12.7700  -8.5569  -8.4661  -3.2905

     occupation numbers 
     1.0000   1.0000   1.0000   0.0000

     highest occupied, lowest unoccupied level (ev):    -5.3872   -3.2905

!    total energy              =     -11.25962331 Ry
     estimated scf accuracy    <          1.1E-09 Ry

     The total energy is the sum of the following terms:
     one-electron contribution =     -26.70679697 Ry
     hartree contribution      =      13.75633568 Ry
     xc contribution           =      -4.37196884 Ry
     ewald contribution        =       6.06280682 Ry

     total magnetization       =     1.00 Bohr mag/cell
     absolute magnetization    =     1.05 Bohr mag/cell

     convergence has been achieved in   7 iterations

     Forces acting on atoms (cartesian axes, Ry/au):

     atom    1 type  1   force =    -0.00997949   -0.01142284   -0.00032630
     atom    2 type  2   force =     0.00678757    0.00116794   -0.00224519
     atom    3 type  2   force =     0.00389506    0.00757903    0.00297263
     atom    4 type  2   force =    -0.00070313    0.00267587   -0.00040114
     The non-local contrib.  to forces
     atom    1 type  1   force =    -0.00912779   -0.00891783    0.10070186
     atom    2 type  2   force =     0.00000000    0.00000000    0.00000000
     atom    3 type  2   force =     0.00000000    0.00000000    0.00000000
     atom    4 type  2   force =     0.00000000    0.00000000    0.00000000
     The ionic contribution  to forces
     atom    1 type  1   force =     0.04197533    0.05643813    0.93390934
     atom    2 type  2   force =     1.10544811    0.05471250   -0.38604605
     atom    3 type  2   force =    -0.48966035   -1.00665426   -0.20548779
     atom    4 type  2   force =    -0.65776309    0.89550363   -0.34237549
     The local contribution  to forces
     atom    1 type  1   force =    -0.04283283   -0.05895159   -1.03494188
     atom    2 type  2   force =    -1.09866046   -0.05354602    0.38379723
     atom    3 type  2   force =     0.49355332    1.01423106    0.20845706
     atom    4 type  2   force =     0.65705722   -0.89282800    0.34197072
     The core correction contribution to forces
     atom    1 type  1   force =     0.00000000    0.00000000    0.00000000
     atom    2 type  2   force =     0.00000000    0.00000000    0.00000000
     atom    3 type  2   force =     0.00000000    0.00000000    0.00000000
     atom    4 type  2   force =     0.00000000    0.00000000    0.00000000
     The Hubbard contrib.    to forces
     atom    1 type  1   force =     0.00000000    0.00000000    0.00000000
     atom    2 type  2   force =     0.00000000    0.00000000    0.00000000
     atom    3 type  2   force =     0.00000000    0.00000000    0.00000000
     atom    4 type  2   force =     0.00000000    0.00000000    0.00000000
     The SCF correction term to forces
     atom    1 type  1   force =     0.00000464    0.00000778    0.00000193
     atom    2 type  2   force =    -0.00000124    0.00000078    0.00000119
     atom    3 type  2   force =     0.00000092    0.00000156    0.00000092
     atom    4 type  2   force =     0.00000157   -0.00000044    0.00000119

     Total force =     0.019285     Total SCF correction =     0.000010
     Energy error            =      5.4E-04 Ry
     Gradient error          =      1.1E-02 Ry/Bohr

     number of scf cycles    =   7
     number of bfgs steps    =   6

     energy             old  =     -11.2590800553 Ry
     energy             new  =     -11.2596233076 Ry

     CASE: energy            _new < energy            _old

     new trust radius        =       0.0117014812 bohr
     new conv_thr            =       0.0000000005 Ry


ATOMIC_POSITIONS (angstrom)
Si            5.0227938722        4.8889435262        5.3867982029
H             6.4033401663        4.9557822364        4.8435205702
H             4.3837184233        3.5756537371        5.0569154630
H             4.1901475382        6.0196205003        4.8927657639



     Writing config-only to output data dir ./scratch/sih3.save/
     NEW-OLD atomic charge density approx. for the potential

     negative rho (up, down):  3.475E-05 3.475E-05
     Generating pointlists ...

     total cpu time spent up to now is       43.4 secs

     Self-consistent Calculation

     iteration #  1     ecut=   100.00 Ry     beta= 0.50
     Davidson diagonalization with overlap

---- Real-time Memory Report at c_bands before calling an iterative solver
           323 MiB given to the printing process from OS
             0 MiB allocation reported by mallinfo(arena+hblkhd)
[...]
     Davidson diagonalization with overlap

---- Real-time Memory Report at c_bands before calling an iterative solver
           323 MiB given to the printing process from OS
             0 MiB allocation reported by mallinfo(arena+hblkhd)
        178865 MiB available memory on the node where the printing process lives
------------------
     ethr =  3.19E-08,  avg # of iterations =  2.0

     negative rho (up, down):  5.971E-07 7.454E-07

     total cpu time spent up to now is       49.0 secs

     total energy              =     -11.25986160 Ry
     estimated scf accuracy    <       0.00000013 Ry

     total magnetization       =     1.00 Bohr mag/cell
     absolute magnetization    =     1.05 Bohr mag/cell

     iteration #  4     ecut=   100.00 Ry     beta= 0.50
     Davidson diagonalization with overlap

---- Real-time Memory Report at c_bands before calling an iterative solver
           323 MiB given to the printing process from OS
             0 MiB allocation reported by mallinfo(arena+hblkhd)
        178864 MiB available memory on the node where the printing process lives
------------------
     ethr =  1.80E-09,  avg # of iterations =  2.5

     negative rho (up, down):  8.353E-08 9.995E-08

     total cpu time spent up to now is       49.4 secs

     total energy              =     -11.25986165 Ry
     estimated scf accuracy    <       0.00000001 Ry

     total magnetization       =     1.00 Bohr mag/cell
     absolute magnetization    =     1.05 Bohr mag/cell

     iteration #  5     ecut=   100.00 Ry     beta= 0.50
     Davidson diagonalization with overlap

---- Real-time Memory Report at c_bands before calling an iterative solver
           323 MiB given to the printing process from OS
             0 MiB allocation reported by mallinfo(arena+hblkhd)
        178864 MiB available memory on the node where the printing process lives
------------------
     ethr =  1.95E-10,  avg # of iterations =  2.5

     total cpu time spent up to now is       49.9 secs

     total energy              =     -11.25986166 Ry
     estimated scf accuracy    <          1.9E-09 Ry

     total magnetization       =     1.00 Bohr mag/cell
     absolute magnetization    =     1.05 Bohr mag/cell

     iteration #  6     ecut=   100.00 Ry     beta= 0.50
     Davidson diagonalization with overlap

---- Real-time Memory Report at c_bands before calling an iterative solver
           323 MiB given to the printing process from OS
             0 MiB allocation reported by mallinfo(arena+hblkhd)
        178863 MiB available memory on the node where the printing process lives
------------------
     ethr =  2.77E-11,  avg # of iterations =  3.5

     negative rho (up, down):  1.451E-08 6.042E-09

     total cpu time spent up to now is       50.3 secs

     total energy              =     -11.25986166 Ry
     estimated scf accuracy    <          3.8E-10 Ry

     total magnetization       =     1.00 Bohr mag/cell
     absolute magnetization    =     1.05 Bohr mag/cell

     iteration #  7     ecut=   100.00 Ry     beta= 0.50
     Davidson diagonalization with overlap

---- Real-time Memory Report at c_bands before calling an iterative solver
           323 MiB given to the printing process from OS
             0 MiB allocation reported by mallinfo(arena+hblkhd)
        178863 MiB available memory on the node where the printing process lives
------------------
     ethr =  5.48E-12,  avg # of iterations =  3.0
 
     Magnetic moment per site  (integrated on atomic sphere of radius R)
     atom   1 (R=0.031)  charge=  0.3563  magn=  0.0656
     atom   2 (R=0.031)  charge=  0.7259  magn=  0.0084
     atom   3 (R=0.031)  charge=  0.7262  magn=  0.0083
     atom   4 (R=0.031)  charge=  0.7257  magn=  0.0084

     total cpu time spent up to now is       50.7 secs

     End of self-consistent calculation

 ------ SPIN UP ------------


          k = 0.0000 0.0000 0.0000 (855385 PWs)   bands (ev):

   -13.3020  -8.6828  -8.6769  -5.3604

     occupation numbers 
     1.0000   1.0000   1.0000   1.0000

 ------ SPIN DOWN ----------


          k = 0.0000 0.0000 0.0000 (855385 PWs)   bands (ev):

   -12.7761  -8.5309  -8.5251  -3.2670

     occupation numbers 
     1.0000   1.0000   1.0000   0.0000

     highest occupied, lowest unoccupied level (ev):    -5.3604   -3.2670

!    total energy              =     -11.25986166 Ry
     estimated scf accuracy    <          5.0E-11 Ry

     The total energy is the sum of the following terms:
     one-electron contribution =     -26.72073284 Ry
     hartree contribution      =      13.76254412 Ry
     xc contribution           =      -4.37358943 Ry
     ewald contribution        =       6.07191649 Ry

     total magnetization       =     1.00 Bohr mag/cell
     absolute magnetization    =     1.05 Bohr mag/cell

     convergence has been achieved in   7 iterations

     Forces acting on atoms (cartesian axes, Ry/au):

     atom    1 type  1   force =    -0.00019368   -0.00010393    0.00071800
     atom    2 type  2   force =     0.00108280    0.00023477   -0.00036451
     atom    3 type  2   force =    -0.00048372   -0.00094687   -0.00008465
     atom    4 type  2   force =    -0.00040540    0.00081603   -0.00026884
     The non-local contrib.  to forces
     atom    1 type  1   force =     0.00535223    0.00755132    0.09554287
     atom    2 type  2   force =     0.00000000    0.00000000    0.00000000
     atom    3 type  2   force =     0.00000000    0.00000000    0.00000000
     atom    4 type  2   force =     0.00000000    0.00000000    0.00000000
     The ionic contribution  to forces
     atom    1 type  1   force =     0.05288022    0.06822178    0.91679234
     atom    2 type  2   force =     1.09612471    0.06012663   -0.37554286
     atom    3 type  2   force =    -0.49791993   -1.02745288   -0.20531560
     atom    4 type  2   force =    -0.65108501    0.89910448   -0.33593388
     The local contribution  to forces
     atom    1 type  1   force =    -0.05842883   -0.07587905   -1.01161193
     atom    2 type  2   force =    -1.09504206   -0.05989193    0.37518029
     atom    3 type  2   force =     0.49743536    1.02650599    0.20523292
     atom    4 type  2   force =     0.65067848   -0.89828826    0.33566705
     The core correction contribution to forces
     atom    1 type  1   force =     0.00000000    0.00000000    0.00000000
     atom    2 type  2   force =     0.00000000    0.00000000    0.00000000
     atom    3 type  2   force =     0.00000000    0.00000000    0.00000000
     atom    4 type  2   force =     0.00000000    0.00000000    0.00000000
     The Hubbard contrib.    to forces
     atom    1 type  1   force =     0.00000000    0.00000000    0.00000000
     atom    2 type  2   force =     0.00000000    0.00000000    0.00000000
     atom    3 type  2   force =     0.00000000    0.00000000    0.00000000
     atom    4 type  2   force =     0.00000000    0.00000000    0.00000000
     The SCF correction term to forces
     atom    1 type  1   force =     0.00000191    0.00000195   -0.00000378
     atom    2 type  2   force =    -0.00000063   -0.00000000   -0.00000044
     atom    3 type  2   force =     0.00000007   -0.00000004   -0.00000047
     atom    4 type  2   force =     0.00000035   -0.00000025   -0.00000051

     Total force =     0.001991     Total SCF correction =     0.000005
     Energy error            =      5.7E-05 Ry
     Gradient error          =      1.1E-03 Ry/Bohr

     number of scf cycles    =   9
     number of bfgs steps    =   8

     energy             old  =     -11.2598047697 Ry
     energy             new  =     -11.2598616639 Ry

     CASE: energy            _new < energy            _old

     new trust radius        =       0.0013350673 bohr
     new conv_thr            =            1.0E-10 Ry


ATOMIC_POSITIONS (angstrom)
Si            5.0195901714        4.8850407684        5.3837896730
H             6.4067733476        4.9566210054        4.8434294888
H             4.3841920969        3.5765820237        5.0593411892
H             4.1894443841        6.0217562025        4.8934396490



     Writing config-only to output data dir ./scratch/sih3.save/
     NEW-OLD atomic charge density approx. for the potential

     negative rho (up, down):  6.495E-07 6.495E-07
     Generating pointlists ...

     total cpu time spent up to now is       52.4 secs

     Self-consistent Calculation

     iteration #  1     ecut=   100.00 Ry     beta= 0.50
     Davidson diagonalization with overlap

---- Real-time Memory Report at c_bands before calling an iterative solver
           323 MiB given to the printing process from OS
             0 MiB allocation reported by mallinfo(arena+hblkhd)
        178940 MiB available memory on the node where the printing process lives
------------------
     ethr =  1.00E-06,  avg # of iterations =  2.0

     Threshold (ethr) on eigenvalues was too large:
     Diagonalizing with lowered threshold

     Davidson diagonalization with overlap

---- Real-time Memory Report at c_bands before calling an iterative solver
           323 MiB given to the printing process from OS
             0 MiB allocation reported by mallinfo(arena+hblkhd)
        178940 MiB available memory on the node where the printing process lives
------------------
     ethr =  1.35E-08,  avg # of iterations =  2.0

     negative rho (up, down):  3.398E-07 3.221E-07

     total cpu time spent up to now is       53.0 secs

     total energy              =     -11.25986456 Ry
     estimated scf accuracy    <       0.00000124 Ry

     total magnetization       =     1.00 Bohr mag/cell
     absolute magnetization    =     1.05 Bohr mag/cell

     iteration #  2     ecut=   100.00 Ry     beta= 0.50
     Davidson diagonalization with overlap

---- Real-time Memory Report at c_bands before calling an iterative solver
           323 MiB given to the printing process from OS
             0 MiB allocation reported by mallinfo(arena+hblkhd)
        178940 MiB available memory on the node where the printing process lives
------------------
     ethr =  1.78E-08,  avg # of iterations =  1.0

     negative rho (up, down):  1.102E-07 1.117E-07

     total cpu time spent up to now is       53.4 secs

     total energy              =     -11.25986465 Ry
     estimated scf accuracy    <       0.00000007 Ry

     total magnetization       =     1.00 Bohr mag/cell
     absolute magnetization    =     1.05 Bohr mag/cell

     iteration #  3     ecut=   100.00 Ry     beta= 0.50
     Davidson diagonalization with overlap

---- Real-time Memory Report at c_bands before calling an iterative solver
           323 MiB given to the printing process from OS
             0 MiB allocation reported by mallinfo(arena+hblkhd)
        178940 MiB available memory on the node where the printing process lives
------------------
     ethr =  1.05E-09,  avg # of iterations =  2.5

     negative rho (up, down):  3.761E-08 4.020E-08

     total cpu time spent up to now is       53.8 secs

     total energy              =     -11.25986467 Ry
     estimated scf accuracy    <          8.1E-09 Ry

     total magnetization       =     1.00 Bohr mag/cell
     absolute magnetization    =     1.05 Bohr mag/cell

     iteration #  4     ecut=   100.00 Ry     beta= 0.50
     Davidson diagonalization with overlap

---- Real-time Memory Report at c_bands before calling an iterative solver
           323 MiB given to the printing process from OS
             0 MiB allocation reported by mallinfo(arena+hblkhd)
        178940 MiB available memory on the node where the printing process lives
------------------
     ethr =  1.16E-10,  avg # of iterations =  1.0

     total cpu time spent up to now is       54.2 secs

     total energy              =     -11.25986467 Ry
     estimated scf accuracy    <          8.2E-10 Ry

     total magnetization       =     1.00 Bohr mag/cell
     absolute magnetization    =     1.05 Bohr mag/cell

     iteration #  5     ecut=   100.00 Ry     beta= 0.50
     Davidson diagonalization with overlap

---- Real-time Memory Report at c_bands before calling an iterative solver
           323 MiB given to the printing process from OS
             0 MiB allocation reported by mallinfo(arena+hblkhd)
        178940 MiB available memory on the node where the printing process lives
------------------
     ethr =  1.17E-11,  avg # of iterations =  2.0
 
     Magnetic moment per site  (integrated on atomic sphere of radius R)
     atom   1 (R=0.031)  charge=  0.3562  magn=  0.0656
     atom   2 (R=0.031)  charge=  0.7254  magn=  0.0084
     atom   3 (R=0.031)  charge=  0.7259  magn=  0.0083
     atom   4 (R=0.031)  charge=  0.7254  magn=  0.0084

     total cpu time spent up to now is       54.5 secs

     End of self-consistent calculation

 ------ SPIN UP ------------


          k = 0.0000 0.0000 0.0000 (855385 PWs)   bands (ev):

   -13.3001  -8.6814  -8.6768  -5.3596

     occupation numbers 
     1.0000   1.0000   1.0000   1.0000

 ------ SPIN DOWN ----------


          k = 0.0000 0.0000 0.0000 (855385 PWs)   bands (ev):

   -12.7740  -8.5296  -8.5250  -3.2666

     occupation numbers 
     1.0000   1.0000   1.0000   0.0000

     highest occupied, lowest unoccupied level (ev):    -5.3596   -3.2666

!    total energy              =     -11.25986467 Ry
     estimated scf accuracy    <          7.8E-11 Ry

     The total energy is the sum of the following terms:
     one-electron contribution =     -26.71429634 Ry
     hartree contribution      =      13.75914772 Ry
     xc contribution           =      -4.37289014 Ry
     ewald contribution        =       6.06817409 Ry

     total magnetization       =     1.00 Bohr mag/cell
     absolute magnetization    =     1.05 Bohr mag/cell

     convergence has been achieved in   5 iterations

     Forces acting on atoms (cartesian axes, Ry/au):

     atom    1 type  1   force =    -0.00003531   -0.00003730    0.00049511
     atom    2 type  2   force =     0.00062492    0.00018601   -0.00022713
     atom    3 type  2   force =    -0.00035763   -0.00067901   -0.00007361
     atom    4 type  2   force =    -0.00023198    0.00053030   -0.00019438
     The non-local contrib.  to forces
     atom    1 type  1   force =     0.00552837    0.00750825    0.09454008
     atom    2 type  2   force =     0.00000000    0.00000000    0.00000000
     atom    3 type  2   force =     0.00000000    0.00000000    0.00000000
     atom    4 type  2   force =     0.00000000    0.00000000    0.00000000
     The ionic contribution  to forces
     atom    1 type  1   force =     0.05294582    0.06799420    0.91526860
     atom    2 type  2   force =     1.09516592    0.06023710   -0.37491049
     atom    3 type  2   force =    -0.49760058   -1.02688021   -0.20490243
     atom    4 type  2   force =    -0.65051116    0.89864891   -0.33545569
     The local contribution  to forces
     atom    1 type  1   force =    -0.05850955   -0.07553812   -1.00931254
     atom    2 type  2   force =    -1.09454078   -0.06005097    0.37468471
     atom    3 type  2   force =     0.49724175    1.02620022    0.20483007
     atom    4 type  2   force =     0.65027788   -0.89811770    0.33526267
     The core correction contribution to forces
     atom    1 type  1   force =     0.00000000    0.00000000    0.00000000
     atom    2 type  2   force =     0.00000000    0.00000000    0.00000000
     atom    3 type  2   force =     0.00000000    0.00000000    0.00000000
     atom    4 type  2   force =     0.00000000    0.00000000    0.00000000
     The Hubbard contrib.    to forces
     atom    1 type  1   force =     0.00000000    0.00000000    0.00000000
     atom    2 type  2   force =     0.00000000    0.00000000    0.00000000
     atom    3 type  2   force =     0.00000000    0.00000000    0.00000000
     atom    4 type  2   force =     0.00000000    0.00000000    0.00000000
     The SCF correction term to forces
     atom    1 type  1   force =    -0.00000072   -0.00000170    0.00000036
     atom    2 type  2   force =    -0.00000100   -0.00000019    0.00000004
     atom    3 type  2   force =     0.00000043    0.00000090    0.00000014
     atom    4 type  2   force =     0.00000053   -0.00000098    0.00000003

     Total force =     0.001301     Total SCF correction =     0.000003
     Energy error            =      3.0E-06 Ry
     Gradient error          =      6.8E-04 Ry/Bohr

     bfgs converged in  10 scf cycles and   9 bfgs steps
     (criteria: energy <  1.0E-04 Ry, force <  1.0E-03 Ry/Bohr)

     End of BFGS Geometry Optimization

     Final energy             =     -11.2598646720 Ry

     File ./scratch/sih3.bfgs deleted, as requested
Begin final coordinates

ATOMIC_POSITIONS (angstrom)
Si            5.0195901714        4.8850407684        5.3837896730
H             6.4067733476        4.9566210054        4.8434294888
H             4.3841920969        3.5765820237        5.0593411892
H             4.1894443841        6.0217562025        4.8934396490
End final coordinates



     Writing all to output data dir ./scratch/sih3.save/
 
     init_run     :      6.23s CPU      6.53s WALL (       1 calls)
     electrons    :     63.89s CPU     39.84s WALL (      10 calls)
     update_pot   :     10.78s CPU      5.49s WALL (       9 calls)
     forces       :      3.30s CPU      1.79s WALL (      10 calls)

     Called by init_run:
     wfcinit      :      0.31s CPU      0.19s WALL (       1 calls)
     wfcinit:atom :      0.00s CPU      0.00s WALL (       1 calls)
     wfcinit:wfcr :      0.29s CPU      0.18s WALL (       1 calls)
     potinit      :      0.89s CPU      0.49s WALL (       1 calls)
     hinit0       :      1.23s CPU      1.67s WALL (       1 calls)

     Called by electrons:
     c_bands      :     15.88s CPU      8.21s WALL (      70 calls)
     sum_band     :      8.75s CPU      4.51s WALL (      70 calls)
     v_of_rho     :     29.69s CPU     15.26s WALL (      79 calls)
     v_h          :      1.72s CPU      0.88s WALL (      79 calls)
     v_xc         :     27.95s CPU     14.37s WALL (      79 calls)
     mix_rho      :      5.35s CPU      2.77s WALL (      70 calls)

     Called by c_bands:
     init_us_2    :      0.13s CPU      0.07s WALL (     141 calls)
     init_us_2:cp :      0.13s CPU      0.07s WALL (     141 calls)
     cegterg      :     15.55s CPU      7.98s WALL (      70 calls)

     Called by sum_band:
     sum_band:wei :      0.03s CPU      0.02s WALL (      70 calls)
     sum_band:loo :      2.55s CPU      1.32s WALL (      70 calls)
     sum_band:buf :      0.00s CPU      0.00s WALL (      70 calls)
     sum_band:ini :      0.07s CPU      0.04s WALL (      70 calls)

     Called by *egterg:
     cdiaghg      :      0.08s CPU      0.06s WALL (     278 calls)
     cegterg:over :      0.15s CPU      0.08s WALL (     218 calls)
     cegterg:upda :      0.07s CPU      0.04s WALL (     218 calls)
     cegterg:last :      0.08s CPU      0.04s WALL (     195 calls)
     h_psi        :     15.20s CPU      7.81s WALL (     289 calls)
     g_psi        :      0.03s CPU      0.02s WALL (     218 calls)

     Called by h_psi:
     h_psi:calbec :      0.35s CPU      0.18s WALL (     289 calls)
     vloc_psi     :     14.74s CPU      7.56s WALL (     289 calls)
     add_vuspsi   :      0.05s CPU      0.03s WALL (     289 calls)

     General routines
     calbec       :      0.36s CPU      0.19s WALL (     329 calls)
     fft          :     26.34s CPU     14.43s WALL (    1502 calls)
     ffts         :      2.00s CPU      1.03s WALL (     140 calls)
     fftw         :     14.78s CPU      7.57s WALL (    2200 calls)
 
     Parallel routines
 
     PWSCF        :   1m26.41s CPU     56.95s WALL

 
   This run was terminated on:  16:37:46  19Sep2024            

=------------------------------------------------------------------------------=
   JOB DONE.
=------------------------------------------------------------------------------=
